<?xml version="1.0" encoding="UTF-8"?>

<!-- generated on 2026-01-17 18:52:34 by Eclipse SUMO sumo Version 1.24.0
<sumoConfiguration xmlns:xsi="http://www.w3.org/2001/XMLSchema-instance" xsi:noNamespaceSchemaLocation="http://sumo.dlr.de/xsd/sumoConfiguration.xsd">

    <input>
        <net-file value="data/legacy/ntut-the%20way.net.xml"/>
        <route-files value="data/legacy/output.rou.xml,data/legacy/2025-09-23-23-41-00/osm.pedestrian.rou.xml"/>
        <additional-files value="data/legacy/2025-09-23-23-41-00/osm.poly.xml.gz,data/legacy/2025-09-23-23-41-00/output.add.xml,data/legacy/traffic_light.add.xml"/>
    </input>

    <output>
        <tripinfo-output value="data/legacy/2025-09-23-23-41-00/tripinfos.xml"/>
        <statistic-output value="data/legacy/2025-09-23-23-41-00/stats.xml"/>
    </output>

    <time>
        <end value="10"/>
    </time>

    <processing>
        <ignore-route-errors value="true"/>
        <tls.actuated.jam-threshold value="30"/>
    </processing>

    <routing>
        <device.rerouting.adaptation-steps value="18"/>
        <device.rerouting.adaptation-interval value="10"/>
    </routing>

    <report>
        <verbose value="true"/>
        <duration-log.disable value="true"/>
        <duration-log.statistics value="true"/>
        <no-step-log value="true"/>
    </report>

    <gui_only>
        <gui-settings-file value="data/legacy/2025-09-23-23-41-00/osm.view.xml"/>
    </gui_only>

</sumoConfiguration>
-->

<meandata xmlns:xsi="http://www.w3.org/2001/XMLSchema-instance" xsi:noNamespaceSchemaLocation="http://sumo.dlr.de/xsd/meandata_file.xsd">
</meandata>
