<?xml version="1.0" encoding="UTF-8"?>

<!-- generated on 2025-12-11 10:57:54 by Eclipse SUMO GUI Version 1.24.0
<sumoConfiguration xmlns:xsi="http://www.w3.org/2001/XMLSchema-instance" xsi:noNamespaceSchemaLocation="http://sumo.dlr.de/xsd/sumoConfiguration.xsd">

    <input>
        <net-file value="C:\Users\benson\Documents\System-of-the-control-traffic-light\data\ntut-the%20way.net.xml"/>
        <route-files value="C:\Users\benson\Documents\System-of-the-control-traffic-light\data\output.rou.alt.xml"/>
        <additional-files value="C:\Users\benson\Documents\System-of-the-control-traffic-light\data\config/osm.poly.xml.gz,C:\Users\benson\Documents\System-of-the-control-traffic-light\data\config/output.add.xml"/>
    </input>

    <output>
        <tripinfo-output value="C:\Users\benson\Documents\System-of-the-control-traffic-light\data\config/tripinfos.xml"/>
        <statistic-output value="C:\Users\benson\Documents\System-of-the-control-traffic-light\data\config/stats.xml"/>
    </output>

    <processing>
        <ignore-route-errors value="true"/>
        <tls.actuated.jam-threshold value="30"/>
    </processing>

    <routing>
        <device.rerouting.adaptation-steps value="18"/>
        <device.rerouting.adaptation-interval value="10"/>
    </routing>

    <report>
        <verbose value="true"/>
        <duration-log.statistics value="true"/>
        <no-step-log value="true"/>
    </report>

    <gui_only>
        <gui-settings-file value="C:\Users\benson\Documents\System-of-the-control-traffic-light\data\config/osm.view.xml"/>
    </gui_only>

</sumoConfiguration>
-->

<meandata xmlns:xsi="http://www.w3.org/2001/XMLSchema-instance" xsi:noNamespaceSchemaLocation="http://sumo.dlr.de/xsd/meandata_file.xsd">
    <interval begin="0.00" end="3600.00" id="wizard_example">
        <edge id="-1334905223#2" sampledSeconds="2680.69" traveltime="17.92" overlapTraveltime="19.26" density="12.45" laneDensity="12.45" occupancy="6.01" waitingTime="1057.00" timeLoss="1837.64" speed="3.36" speedRelative="0.24" departed="150" arrived="0" entered="1" left="151" laneChangedFrom="0" laneChangedTo="0"/>
        <edge id="-1334905224" sampledSeconds="1.43" traveltime="0.03" overlapTraveltime="0.81" density="1.99" laneDensity="1.99" occupancy="0.04" waitingTime="0.00" timeLoss="0.75" speed="6.46" speedRelative="0.46" departed="0" arrived="4" entered="4" left="0" laneChangedFrom="0" laneChangedTo="0"/>
        <edge id="-1334905225" sampledSeconds="0.00" departed="0" arrived="0" entered="0" left="0" laneChangedFrom="0" laneChangedTo="0"/>
        <edge id="-182336886" sampledSeconds="0.00" departed="0" arrived="0" entered="0" left="0" laneChangedFrom="0" laneChangedTo="0"/>
        <edge id="-186602412#3" sampledSeconds="0.00" departed="0" arrived="0" entered="0" left="0" laneChangedFrom="0" laneChangedTo="0"/>
        <edge id="-260882327" sampledSeconds="0.00" departed="0" arrived="0" entered="0" left="0" laneChangedFrom="0" laneChangedTo="0"/>
        <edge id="-300077497#5" sampledSeconds="338.97" traveltime="29.47" overlapTraveltime="30.82" density="0.46" laneDensity="0.46" occupancy="0.22" waitingTime="107.00" timeLoss="149.33" speed="6.73" speedRelative="0.48" departed="0" arrived="0" entered="11" left="11" laneChangedFrom="0" laneChangedTo="0"/>
        <edge id="-300077497#8" sampledSeconds="42.15" traveltime="3.90" overlapTraveltime="4.68" density="0.30" laneDensity="0.30" occupancy="0.13" waitingTime="0.00" timeLoss="6.00" speed="9.38" speedRelative="0.68" departed="0" arrived="0" entered="9" left="9" laneChangedFrom="0" laneChangedTo="0"/>
        <edge id="-304148115" sampledSeconds="16.90" traveltime="1.44" overlapTraveltime="2.41" density="0.50" laneDensity="0.50" occupancy="0.17" waitingTime="0.00" timeLoss="4.76" speed="5.92" speedRelative="0.43" departed="0" arrived="0" entered="7" left="7" laneChangedFrom="0" laneChangedTo="0"/>
        <edge id="-35274074#2" sampledSeconds="302.36" traveltime="9.47" overlapTraveltime="10.80" density="0.95" laneDensity="0.95" occupancy="0.43" waitingTime="0.00" timeLoss="67.61" speed="8.66" speedRelative="0.62" departed="0" arrived="0" entered="28" left="28" laneChangedFrom="0" laneChangedTo="0"/>
        <edge id="-360018417" sampledSeconds="0.00" departed="0" arrived="0" entered="0" left="0" laneChangedFrom="0" laneChangedTo="0"/>
        <edge id="-49073264#1" sampledSeconds="0.00" departed="0" arrived="0" entered="0" left="0" laneChangedFrom="0" laneChangedTo="0"/>
        <edge id="-49695726" sampledSeconds="0.00" departed="0" arrived="0" entered="0" left="0" laneChangedFrom="0" laneChangedTo="0"/>
        <edge id="-506322847#4" sampledSeconds="37.63" traveltime="17.80" overlapTraveltime="18.81" density="0.06" laneDensity="0.06" occupancy="0.03" waitingTime="0.00" timeLoss="6.17" speed="10.00" speedRelative="0.72" departed="0" arrived="0" entered="2" left="2" laneChangedFrom="0" laneChangedTo="0"/>
        <edge id="-51362368" sampledSeconds="0.00" departed="0" arrived="0" entered="0" left="0" laneChangedFrom="0" laneChangedTo="0"/>
        <edge id="-51362429#1" sampledSeconds="2296.49" traveltime="20.08" overlapTraveltime="21.26" density="9.04" laneDensity="4.52" occupancy="2.18" waitingTime="1252.00" timeLoss="1691.99" speed="3.55" speedRelative="0.26" departed="0" arrived="0" entered="108" left="108" laneChangedFrom="26" laneChangedTo="26"/>
        <edge id="-51362430" sampledSeconds="36.39" traveltime="11.72" overlapTraveltime="12.13" density="0.07" laneDensity="0.07" occupancy="0.03" waitingTime="0.00" timeLoss="1.84" speed="12.21" speedRelative="0.88" departed="0" arrived="0" entered="3" left="3" laneChangedFrom="0" laneChangedTo="0"/>
        <edge id="-51392846#1" sampledSeconds="0.00" departed="0" arrived="0" entered="0" left="0" laneChangedFrom="0" laneChangedTo="0"/>
        <edge id="-545977624#2" sampledSeconds="0.00" departed="0" arrived="0" entered="0" left="0" laneChangedFrom="0" laneChangedTo="0"/>
        <edge id="-593847701" sampledSeconds="86.08" traveltime="0.03" overlapTraveltime="0.67" density="119.56" laneDensity="119.56" occupancy="2.29" waitingTime="0.00" timeLoss="31.49" speed="7.79" speedRelative="0.56" departed="0" arrived="26" entered="144" left="118" laneChangedFrom="0" laneChangedTo="0"/>
        <edge id="-593847703#3" sampledSeconds="652.30" traveltime="18.79" overlapTraveltime="19.33" density="1.35" laneDensity="0.68" occupancy="0.33" waitingTime="168.00" timeLoss="285.40" speed="7.19" speedRelative="0.52" departed="30" arrived="30" entered="5" left="5" laneChangedFrom="4" laneChangedTo="4"/>
        <edge id="-593847704#2" sampledSeconds="3529.24" traveltime="45.28" overlapTraveltime="46.44" density="6.36" laneDensity="6.36" occupancy="3.12" waitingTime="2169.00" timeLoss="2608.89" speed="3.43" speedRelative="0.25" departed="0" arrived="0" entered="76" left="76" laneChangedFrom="0" laneChangedTo="0"/>
        <edge id="-593847705" sampledSeconds="528.76" traveltime="7.47" overlapTraveltime="8.96" density="266.67" laneDensity="133.33" occupancy="4.19" waitingTime="418.00" timeLoss="505.17" speed="0.58" speedRelative="0.04" departed="0" arrived="0" entered="59" left="59" laneChangedFrom="55" laneChangedTo="55"/>
        <edge id="-593849724" sampledSeconds="426.19" traveltime="8.53" overlapTraveltime="10.29" density="2.67" laneDensity="2.67" occupancy="1.17" waitingTime="126.00" timeLoss="273.95" speed="4.79" speedRelative="0.35" departed="0" arrived="0" entered="42" left="41" laneChangedFrom="0" laneChangedTo="0"/>
        <edge id="-594658757#2" sampledSeconds="312.21" traveltime="43.24" overlapTraveltime="44.60" density="0.48" laneDensity="0.48" occupancy="0.23" waitingTime="169.00" timeLoss="204.36" speed="4.17" speedRelative="0.30" departed="0" arrived="0" entered="7" left="7" laneChangedFrom="0" laneChangedTo="0"/>
        <edge id="-E0" sampledSeconds="2879.36" traveltime="49.47" overlapTraveltime="50.52" density="5.28" laneDensity="5.28" occupancy="2.60" waitingTime="1904.00" timeLoss="2217.61" speed="3.10" speedRelative="0.22" departed="0" arrived="0" entered="57" left="57" laneChangedFrom="0" laneChangedTo="0"/>
        <edge id="1068234498#0" sampledSeconds="0.00" departed="0" arrived="0" entered="0" left="0" laneChangedFrom="0" laneChangedTo="0"/>
        <edge id="1068234499#0" sampledSeconds="764.33" traveltime="16.23" overlapTraveltime="17.37" density="3.46" laneDensity="1.15" occupancy="0.55" waitingTime="396.00" timeLoss="542.82" speed="3.82" speedRelative="0.27" departed="0" arrived="0" entered="44" left="44" laneChangedFrom="4" laneChangedTo="4"/>
        <edge id="1068440001" sampledSeconds="13.92" traveltime="3.92" overlapTraveltime="4.64" density="0.09" laneDensity="0.04" occupancy="0.02" waitingTime="0.00" timeLoss="1.67" speed="10.69" speedRelative="0.77" departed="0" arrived="0" entered="3" left="3" laneChangedFrom="0" laneChangedTo="0"/>
        <edge id="1068440004#1" sampledSeconds="2688.91" traveltime="43.71" overlapTraveltime="44.85" density="5.46" laneDensity="2.73" occupancy="1.34" waitingTime="1742.00" timeLoss="2043.87" speed="3.16" speedRelative="0.23" departed="0" arrived="3" entered="60" left="57" laneChangedFrom="1" laneChangedTo="1"/>
        <edge id="1068440006#0" sampledSeconds="490.95" traveltime="19.96" overlapTraveltime="20.59" density="0.83" laneDensity="0.41" occupancy="0.20" waitingTime="84.00" timeLoss="127.25" speed="8.26" speedRelative="0.74" departed="0" arrived="21" entered="24" left="3" laneChangedFrom="4" laneChangedTo="4"/>
        <edge id="1239087512" sampledSeconds="73.85" traveltime="0.03" overlapTraveltime="0.64" density="102.57" laneDensity="51.29" occupancy="0.99" waitingTime="0.00" timeLoss="29.57" speed="8.17" speedRelative="0.59" departed="0" arrived="0" entered="116" left="116" laneChangedFrom="0" laneChangedTo="0"/>
        <edge id="1239087513" sampledSeconds="76.38" traveltime="23.90" overlapTraveltime="25.46" density="14.53" laneDensity="14.53" occupancy="0.74" waitingTime="66.00" timeLoss="74.42" speed="0.25" speedRelative="0.02" departed="0" arrived="0" entered="3" left="3" laneChangedFrom="0" laneChangedTo="0"/>
        <edge id="1239087514" sampledSeconds="446.52" traveltime="3.46" overlapTraveltime="3.85" density="3.11" laneDensity="3.11" occupancy="1.37" waitingTime="0.00" timeLoss="64.67" speed="11.65" speedRelative="0.84" departed="0" arrived="0" entered="116" left="116" laneChangedFrom="0" laneChangedTo="0"/>
        <edge id="1334904386#0" sampledSeconds="352.40" traveltime="42.81" overlapTraveltime="44.05" density="0.53" laneDensity="0.26" occupancy="0.13" waitingTime="188.00" timeLoss="220.71" speed="4.32" speedRelative="0.39" departed="0" arrived="0" entered="8" left="8" laneChangedFrom="0" laneChangedTo="0"/>
        <edge id="1334905223#0" sampledSeconds="0.00" departed="0" arrived="0" entered="0" left="0" laneChangedFrom="0" laneChangedTo="0"/>
        <edge id="1334905224" sampledSeconds="14.50" traveltime="0.04" overlapTraveltime="0.81" density="20.14" laneDensity="20.14" occupancy="0.39" waitingTime="0.00" timeLoss="5.15" speed="6.46" speedRelative="0.46" departed="0" arrived="0" entered="18" left="18" laneChangedFrom="0" laneChangedTo="0"/>
        <edge id="1334905225" sampledSeconds="122.59" traveltime="1.98" overlapTraveltime="3.84" density="2.67" laneDensity="2.67" occupancy="1.07" waitingTime="45.00" timeLoss="77.31" speed="4.63" speedRelative="0.33" departed="0" arrived="15" entered="33" left="18" laneChangedFrom="0" laneChangedTo="0"/>
        <edge id="182334378#0" sampledSeconds="797.58" traveltime="17.58" overlapTraveltime="18.38" density="2.57" laneDensity="0.86" occupancy="0.42" waitingTime="387.00" timeLoss="499.75" speed="4.95" speedRelative="0.36" departed="10" arrived="31" entered="35" left="13" laneChangedFrom="13" laneChangedTo="13"/>
        <edge id="182334379#0" sampledSeconds="400.69" traveltime="18.61" overlapTraveltime="19.22" density="0.57" laneDensity="0.14" occupancy="0.07" waitingTime="17.00" timeLoss="65.47" speed="10.45" speedRelative="0.75" departed="3" arrived="16" entered="18" left="5" laneChangedFrom="0" laneChangedTo="0"/>
        <edge id="182336886" sampledSeconds="9.85" traveltime="2.29" overlapTraveltime="3.28" density="0.23" laneDensity="0.23" occupancy="0.08" waitingTime="0.00" timeLoss="3.79" speed="5.23" speedRelative="0.38" departed="0" arrived="0" entered="3" left="3" laneChangedFrom="0" laneChangedTo="0"/>
        <edge id="182336887#0" sampledSeconds="0.00" departed="0" arrived="0" entered="0" left="0" laneChangedFrom="0" laneChangedTo="0"/>
        <edge id="182336887#2" sampledSeconds="0.00" departed="0" arrived="0" entered="0" left="0" laneChangedFrom="0" laneChangedTo="0"/>
        <edge id="186602412#0" sampledSeconds="0.00" departed="0" arrived="0" entered="0" left="0" laneChangedFrom="0" laneChangedTo="0"/>
        <edge id="196961215#0" sampledSeconds="0.00" departed="0" arrived="0" entered="0" left="0" laneChangedFrom="0" laneChangedTo="0"/>
        <edge id="196961215#2" sampledSeconds="5188.71" traveltime="35.54" overlapTraveltime="36.06" density="40.41" laneDensity="13.47" occupancy="6.64" waitingTime="3963.00" timeLoss="4732.90" speed="1.13" speedRelative="0.08" departed="165" arrived="1" entered="4" left="160" laneChangedFrom="326" laneChangedTo="326"/>
        <edge id="196961377#0" sampledSeconds="8488.32" traveltime="37.03" overlapTraveltime="37.83" density="11.38" laneDensity="11.38" occupancy="5.61" waitingTime="3040.00" timeLoss="4993.84" speed="5.61" speedRelative="0.40" departed="79" arrived="0" entered="148" left="221" laneChangedFrom="0" laneChangedTo="0"/>
        <edge id="196961377#3" sampledSeconds="8291.83" traveltime="37.47" overlapTraveltime="38.28" density="26.93" laneDensity="26.93" occupancy="13.24" waitingTime="5240.00" timeLoss="6853.15" speed="2.36" speedRelative="0.17" departed="0" arrived="0" entered="221" left="213" laneChangedFrom="0" laneChangedTo="0"/>
        <edge id="196961378#1" sampledSeconds="0.00" departed="0" arrived="0" entered="0" left="0" laneChangedFrom="0" laneChangedTo="0"/>
        <edge id="196961379#0" sampledSeconds="0.00" departed="0" arrived="0" entered="0" left="0" laneChangedFrom="0" laneChangedTo="0"/>
        <edge id="198001764#0" sampledSeconds="0.00" departed="0" arrived="0" entered="0" left="0" laneChangedFrom="0" laneChangedTo="0"/>
        <edge id="232003903#0" sampledSeconds="0.00" departed="0" arrived="0" entered="0" left="0" laneChangedFrom="0" laneChangedTo="0"/>
        <edge id="238526531#0" sampledSeconds="1143.65" traveltime="23.70" overlapTraveltime="24.90" density="1.64" laneDensity="0.55" occupancy="0.27" waitingTime="135.00" timeLoss="392.56" speed="7.97" speedRelative="0.57" departed="42" arrived="0" entered="5" left="47" laneChangedFrom="10" laneChangedTo="10"/>
        <edge id="241518668#0" sampledSeconds="30.45" traveltime="6.75" overlapTraveltime="7.61" density="0.15" laneDensity="0.05" occupancy="0.02" waitingTime="3.00" timeLoss="11.44" speed="8.22" speedRelative="0.59" departed="0" arrived="0" entered="4" left="4" laneChangedFrom="0" laneChangedTo="0"/>
        <edge id="244450512#0" sampledSeconds="0.00" departed="0" arrived="0" entered="0" left="0" laneChangedFrom="0" laneChangedTo="0"/>
        <edge id="244450512#1" sampledSeconds="0.00" departed="0" arrived="0" entered="0" left="0" laneChangedFrom="0" laneChangedTo="0"/>
        <edge id="244450512#4" sampledSeconds="448.61" traveltime="14.58" overlapTraveltime="14.99" density="0.88" laneDensity="0.44" occupancy="0.22" waitingTime="0.00" timeLoss="101.03" speed="9.74" speedRelative="0.70" departed="31" arrived="0" entered="0" left="31" laneChangedFrom="0" laneChangedTo="0"/>
        <edge id="244450512#5" sampledSeconds="929.85" traveltime="28.71" overlapTraveltime="30.00" density="16.25" laneDensity="8.13" occupancy="3.96" waitingTime="769.00" timeLoss="875.08" speed="0.70" speedRelative="0.05" departed="0" arrived="0" entered="31" left="31" laneChangedFrom="0" laneChangedTo="0"/>
        <edge id="252657367" sampledSeconds="685.51" traveltime="0.06" overlapTraveltime="4.77" density="133.33" laneDensity="133.33" occupancy="18.83" waitingTime="468.00" timeLoss="586.23" speed="1.09" speedRelative="0.08" departed="0" arrived="0" entered="150" left="150" laneChangedFrom="0" laneChangedTo="0"/>
        <edge id="252657375" sampledSeconds="1537.23" traveltime="35.12" overlapTraveltime="13.50" density="400.00" laneDensity="133.33" occupancy="11.75" waitingTime="1217.00" timeLoss="1487.28" speed="0.45" speedRelative="0.03" departed="278" arrived="270" entered="25" left="31" laneChangedFrom="15" laneChangedTo="15" teleported="2"/>
        <edge id="252657376" sampledSeconds="157.17" traveltime="0.61" overlapTraveltime="1.39" density="218.29" laneDensity="109.14" occupancy="2.13" waitingTime="61.00" timeLoss="84.76" speed="3.73" speedRelative="0.27" departed="0" arrived="0" entered="116" left="108" laneChangedFrom="0" laneChangedTo="0"/>
        <edge id="259080307#0" sampledSeconds="1618.77" traveltime="13.12" overlapTraveltime="13.95" density="3.29" laneDensity="3.29" occupancy="1.55" waitingTime="30.00" timeLoss="377.57" speed="10.15" speedRelative="0.73" departed="0" arrived="0" entered="116" left="116" laneChangedFrom="0" laneChangedTo="0"/>
        <edge id="260881641" sampledSeconds="0.00" departed="0" arrived="0" entered="0" left="0" laneChangedFrom="0" laneChangedTo="0"/>
        <edge id="260881642#0" sampledSeconds="0.00" departed="0" arrived="0" entered="0" left="0" laneChangedFrom="0" laneChangedTo="0"/>
        <edge id="260882327" sampledSeconds="0.00" departed="0" arrived="0" entered="0" left="0" laneChangedFrom="0" laneChangedTo="0"/>
        <edge id="261898534" sampledSeconds="0.00" departed="0" arrived="0" entered="0" left="0" laneChangedFrom="0" laneChangedTo="0"/>
        <edge id="263217603#0" sampledSeconds="2863.91" traveltime="14.84" overlapTraveltime="16.00" density="27.14" laneDensity="9.05" occupancy="4.26" waitingTime="1651.00" timeLoss="2277.29" speed="2.14" speedRelative="0.15" departed="0" arrived="27" entered="180" left="151" laneChangedFrom="5" laneChangedTo="5"/>
        <edge id="263217604#0" sampledSeconds="0.00" departed="0" arrived="0" entered="0" left="0" laneChangedFrom="0" laneChangedTo="0"/>
        <edge id="268564473#0" sampledSeconds="0.00" departed="0" arrived="0" entered="0" left="0" laneChangedFrom="0" laneChangedTo="0"/>
        <edge id="288135626#0" sampledSeconds="517.98" traveltime="11.54" overlapTraveltime="11.93" density="1.14" laneDensity="0.29" occupancy="0.14" waitingTime="0.00" timeLoss="90.18" speed="10.96" speedRelative="0.79" departed="15" arrived="0" entered="29" left="44" laneChangedFrom="66" laneChangedTo="66"/>
        <edge id="288135628#0" sampledSeconds="0.00" departed="0" arrived="0" entered="0" left="0" laneChangedFrom="0" laneChangedTo="0"/>
        <edge id="288878926#0" sampledSeconds="28902.99" traveltime="68.35" overlapTraveltime="70.91" density="79.54" laneDensity="39.77" occupancy="19.45" waitingTime="20470.00" timeLoss="25318.20" speed="1.49" speedRelative="0.11" departed="279" arrived="37" entered="156" left="372" laneChangedFrom="81" laneChangedTo="81"/>
        <edge id="288878927" sampledSeconds="6.09" traveltime="2.90" overlapTraveltime="3.31" density="0.05" laneDensity="0.02" occupancy="0.01" waitingTime="0.00" timeLoss="0.47" speed="12.30" speedRelative="0.89" departed="0" arrived="2" entered="2" left="0" laneChangedFrom="0" laneChangedTo="0"/>
        <edge id="297213521#0" sampledSeconds="0.00" departed="0" arrived="0" entered="0" left="0" laneChangedFrom="0" laneChangedTo="0"/>
        <edge id="300077497#0" sampledSeconds="707.32" traveltime="18.06" overlapTraveltime="18.56" density="0.97" laneDensity="0.97" occupancy="0.47" waitingTime="0.00" timeLoss="89.03" speed="11.19" speedRelative="0.81" departed="13" arrived="0" entered="26" left="38" laneChangedFrom="0" laneChangedTo="0"/>
        <edge id="300077497#6" sampledSeconds="337.27" traveltime="10.58" overlapTraveltime="11.63" density="2.41" laneDensity="2.41" occupancy="1.13" waitingTime="161.00" timeLoss="239.70" speed="3.78" speedRelative="0.27" departed="0" arrived="0" entered="29" left="29" laneChangedFrom="0" laneChangedTo="0"/>
        <edge id="303647013" sampledSeconds="0.00" departed="0" arrived="0" entered="0" left="0" laneChangedFrom="0" laneChangedTo="0"/>
        <edge id="303647015#0" sampledSeconds="0.00" departed="0" arrived="0" entered="0" left="0" laneChangedFrom="0" laneChangedTo="0"/>
        <edge id="304148115" sampledSeconds="0.00" departed="0" arrived="0" entered="0" left="0" laneChangedFrom="0" laneChangedTo="0"/>
        <edge id="30620492#0" sampledSeconds="0.00" departed="0" arrived="0" entered="0" left="0" laneChangedFrom="0" laneChangedTo="0"/>
        <edge id="30620492#1" sampledSeconds="18.28" traveltime="5.04" overlapTraveltime="6.09" density="0.14" laneDensity="0.14" occupancy="0.06" waitingTime="0.00" timeLoss="6.11" speed="6.93" speedRelative="0.50" departed="0" arrived="0" entered="3" left="3" laneChangedFrom="0" laneChangedTo="0"/>
        <edge id="314800955" sampledSeconds="0.00" departed="0" arrived="0" entered="0" left="0" laneChangedFrom="0" laneChangedTo="0"/>
        <edge id="336063376#0" sampledSeconds="10.31" traveltime="9.99" overlapTraveltime="11.05" density="0.04" laneDensity="0.04" occupancy="0.02" waitingTime="0.00" timeLoss="4.38" speed="6.88" speedRelative="0.50" departed="1" arrived="0" entered="0" left="1" laneChangedFrom="0" laneChangedTo="0"/>
        <edge id="35274074#0" sampledSeconds="476.09" traveltime="12.59" overlapTraveltime="13.61" density="1.55" laneDensity="1.55" occupancy="0.72" waitingTime="108.00" timeLoss="212.70" speed="6.62" speedRelative="0.48" departed="0" arrived="2" entered="35" left="33" laneChangedFrom="0" laneChangedTo="0"/>
        <edge id="353392316#0" sampledSeconds="1493.21" traveltime="36.43" overlapTraveltime="37.36" density="1.11" laneDensity="0.37" occupancy="0.18" waitingTime="191.00" timeLoss="351.17" speed="10.15" speedRelative="0.73" departed="0" arrived="11" entered="40" left="29" laneChangedFrom="18" laneChangedTo="18"/>
        <edge id="360018417" sampledSeconds="0.00" departed="0" arrived="0" entered="0" left="0" laneChangedFrom="0" laneChangedTo="0"/>
        <edge id="360843888" sampledSeconds="0.00" departed="0" arrived="0" entered="0" left="0" laneChangedFrom="0" laneChangedTo="0"/>
        <edge id="360843891" sampledSeconds="5.25" traveltime="0.03" overlapTraveltime="0.66" density="7.29" laneDensity="7.29" occupancy="0.14" waitingTime="0.00" timeLoss="2.09" speed="7.93" speedRelative="0.57" departed="0" arrived="0" entered="8" left="8" laneChangedFrom="0" laneChangedTo="0"/>
        <edge id="360851262#0" sampledSeconds="0.00" departed="0" arrived="0" entered="0" left="0" laneChangedFrom="0" laneChangedTo="0"/>
        <edge id="420578931#0" sampledSeconds="0.00" departed="0" arrived="0" entered="0" left="0" laneChangedFrom="0" laneChangedTo="0"/>
        <edge id="420578931#1" sampledSeconds="0.00" departed="0" arrived="0" entered="0" left="0" laneChangedFrom="0" laneChangedTo="0"/>
        <edge id="484988951#0" sampledSeconds="4310.86" traveltime="17.76" overlapTraveltime="18.66" density="34.18" laneDensity="34.18" occupancy="16.43" waitingTime="2560.00" timeLoss="3634.42" speed="2.15" speedRelative="0.15" departed="0" arrived="0" entered="231" left="231" laneChangedFrom="0" laneChangedTo="0"/>
        <edge id="484988952#0" sampledSeconds="9.43" traveltime="2.73" overlapTraveltime="3.14" density="0.08" laneDensity="0.08" occupancy="0.03" waitingTime="0.00" timeLoss="0.44" speed="12.26" speedRelative="0.88" departed="0" arrived="0" entered="3" left="3" laneChangedFrom="0" laneChangedTo="0"/>
        <edge id="48794887#0" sampledSeconds="0.00" departed="0" arrived="0" entered="0" left="0" laneChangedFrom="0" laneChangedTo="0"/>
        <edge id="48794890" sampledSeconds="0.00" departed="0" arrived="0" entered="0" left="0" laneChangedFrom="0" laneChangedTo="0"/>
        <edge id="49073226#2" sampledSeconds="1599.48" traveltime="4.40" overlapTraveltime="4.79" density="8.05" laneDensity="2.68" occupancy="1.24" waitingTime="4.00" timeLoss="124.29" speed="12.56" speedRelative="0.90" departed="0" arrived="337" entered="339" left="2" laneChangedFrom="0" laneChangedTo="0"/>
        <edge id="49073247#0" sampledSeconds="0.00" departed="0" arrived="0" entered="0" left="0" laneChangedFrom="0" laneChangedTo="0"/>
        <edge id="49073264#0" sampledSeconds="0.00" departed="0" arrived="0" entered="0" left="0" laneChangedFrom="0" laneChangedTo="0"/>
        <edge id="49073272#0" sampledSeconds="3370.99" traveltime="8.07" overlapTraveltime="9.78" density="266.67" laneDensity="133.33" occupancy="20.74" waitingTime="2582.00" timeLoss="3203.98" speed="0.68" speedRelative="0.05" departed="0" arrived="102" entered="371" left="268" laneChangedFrom="6" laneChangedTo="6" teleported="1"/>
        <edge id="49073272#1" sampledSeconds="19398.11" traveltime="73.27" overlapTraveltime="73.92" density="75.29" laneDensity="37.64" occupancy="18.68" waitingTime="16808.00" timeLoss="17927.21" speed="1.04" speedRelative="0.07" departed="0" arrived="0" entered="266" left="257" laneChangedFrom="45" laneChangedTo="45"/>
        <edge id="49073272#3" sampledSeconds="6396.93" traveltime="24.96" overlapTraveltime="27.31" density="149.07" laneDensity="74.54" occupancy="31.23" waitingTime="5922.00" timeLoss="6107.85" speed="0.62" speedRelative="0.04" departed="0" arrived="224" entered="255" left="29" laneChangedFrom="6" laneChangedTo="6" teleported="7"/>
        <edge id="49073272#4" sampledSeconds="147520.34" traveltime="970.23" overlapTraveltime="976.69" density="210.27" laneDensity="105.14" occupancy="52.51" waitingTime="138917.00" timeLoss="145325.51" speed="0.20" speedRelative="0.01" departed="159" arrived="31" entered="29" left="100" laneChangedFrom="99" laneChangedTo="99" teleported="10"/>
        <edge id="49073274" sampledSeconds="107.72" traveltime="0.02" overlapTraveltime="0.63" density="133.33" laneDensity="133.33" occupancy="2.88" waitingTime="0.00" timeLoss="29.53" speed="8.22" speedRelative="0.59" departed="0" arrived="0" entered="171" left="171" laneChangedFrom="0" laneChangedTo="0"/>
        <edge id="49695726" sampledSeconds="0.00" departed="0" arrived="0" entered="0" left="0" laneChangedFrom="0" laneChangedTo="0"/>
        <edge id="49695733#0" sampledSeconds="0.00" departed="0" arrived="0" entered="0" left="0" laneChangedFrom="0" laneChangedTo="0"/>
        <edge id="49695733#2" sampledSeconds="0.00" departed="0" arrived="0" entered="0" left="0" laneChangedFrom="0" laneChangedTo="0"/>
        <edge id="49695736#0" sampledSeconds="482.16" traveltime="21.72" overlapTraveltime="23.02" density="1.52" laneDensity="0.51" occupancy="0.24" waitingTime="241.00" timeLoss="329.66" speed="4.04" speedRelative="0.29" departed="0" arrived="3" entered="21" left="18" laneChangedFrom="6" laneChangedTo="6"/>
        <edge id="506322840#0" sampledSeconds="857.82" traveltime="5.46" overlapTraveltime="5.95" density="4.54" laneDensity="1.51" occupancy="0.69" waitingTime="1.00" timeLoss="150.02" speed="9.67" speedRelative="0.70" departed="0" arrived="148" entered="149" left="1" laneChangedFrom="0" laneChangedTo="0"/>
        <edge id="506322841#1" sampledSeconds="14.83" traveltime="3.93" overlapTraveltime="4.94" density="0.12" laneDensity="0.12" occupancy="0.05" waitingTime="0.00" timeLoss="3.34" speed="8.14" speedRelative="0.59" departed="0" arrived="0" entered="3" left="3" laneChangedFrom="0" laneChangedTo="0"/>
        <edge id="506322841#3" sampledSeconds="0.00" departed="0" arrived="0" entered="0" left="0" laneChangedFrom="0" laneChangedTo="0"/>
        <edge id="506322841#4" sampledSeconds="0.00" departed="0" arrived="0" entered="0" left="0" laneChangedFrom="0" laneChangedTo="0"/>
        <edge id="506322842#0" sampledSeconds="790.86" traveltime="8.68" overlapTraveltime="9.15" density="3.16" laneDensity="1.05" occupancy="0.52" waitingTime="12.00" timeLoss="283.86" speed="8.14" speedRelative="0.59" departed="88" arrived="88" entered="6" left="6" laneChangedFrom="0" laneChangedTo="0"/>
        <edge id="506322844#0" sampledSeconds="212.68" traveltime="15.31" overlapTraveltime="16.62" density="1.30" laneDensity="1.30" occupancy="0.62" waitingTime="101.00" timeLoss="159.25" speed="3.03" speedRelative="0.22" departed="2" arrived="0" entered="11" left="13" laneChangedFrom="0" laneChangedTo="0"/>
        <edge id="506322846#0" sampledSeconds="482.03" traveltime="11.62" overlapTraveltime="12.05" density="1.03" laneDensity="0.26" occupancy="0.12" waitingTime="0.00" timeLoss="40.92" speed="11.19" speedRelative="0.81" departed="0" arrived="0" entered="40" left="40" laneChangedFrom="2" laneChangedTo="2"/>
        <edge id="506322846#2" sampledSeconds="188.35" traveltime="4.34" overlapTraveltime="4.77" density="1.04" laneDensity="0.26" occupancy="0.12" waitingTime="0.00" timeLoss="9.82" speed="11.59" speedRelative="0.83" departed="0" arrived="40" entered="40" left="0" laneChangedFrom="0" laneChangedTo="0"/>
        <edge id="506322847#0" sampledSeconds="36.74" traveltime="16.69" overlapTraveltime="18.37" density="0.06" laneDensity="0.06" occupancy="0.03" waitingTime="0.00" timeLoss="5.20" speed="10.25" speedRelative="0.74" departed="0" arrived="0" entered="2" left="2" laneChangedFrom="0" laneChangedTo="0"/>
        <edge id="506322848#0" sampledSeconds="314.92" traveltime="16.33" overlapTraveltime="17.57" density="1.26" laneDensity="0.42" occupancy="0.20" waitingTime="146.00" timeLoss="203.59" speed="4.23" speedRelative="0.30" departed="0" arrived="3" entered="18" left="15" laneChangedFrom="0" laneChangedTo="0"/>