<?xml version="1.0" encoding="UTF-8"?>

<!-- generated on 2025-12-11 10:57:53 by Eclipse SUMO GUI Version 1.24.0
<sumoConfiguration xmlns:xsi="http://www.w3.org/2001/XMLSchema-instance" xsi:noNamespaceSchemaLocation="http://sumo.dlr.de/xsd/sumoConfiguration.xsd">

    <input>
        <net-file value="C:\Users\benson\Documents\System-of-the-control-traffic-light\data\ntut-the%20way.net.xml"/>
        <route-files value="C:\Users\benson\Documents\System-of-the-control-traffic-light\data\output.rou.alt.xml"/>
        <additional-files value="C:\Users\benson\Documents\System-of-the-control-traffic-light\data\config/osm.poly.xml.gz,C:\Users\benson\Documents\System-of-the-control-traffic-light\data\config/output.add.xml"/>
    </input>

    <output>
        <tripinfo-output value="C:\Users\benson\Documents\System-of-the-control-traffic-light\data\config/tripinfos.xml"/>
        <statistic-output value="C:\Users\benson\Documents\System-of-the-control-traffic-light\data\config/stats.xml"/>
    </output>

    <processing>
        <ignore-route-errors value="true"/>
        <tls.actuated.jam-threshold value="30"/>
    </processing>

    <routing>
        <device.rerouting.adaptation-steps value="18"/>
        <device.rerouting.adaptation-interval value="10"/>
    </routing>

    <report>
        <verbose value="true"/>
        <duration-log.statistics value="true"/>
        <no-step-log value="true"/>
    </report>

    <gui_only>
        <gui-settings-file value="C:\Users\benson\Documents\System-of-the-control-traffic-light\data\config/osm.view.xml"/>
    </gui_only>

</sumoConfiguration>
-->

<tripinfos xmlns:xsi="http://www.w3.org/2001/XMLSchema-instance" xsi:noNamespaceSchemaLocation="http://sumo.dlr.de/xsd/tripinfo_file.xsd">
    <tripinfo id="Flow18.0" depart="0.00" departLane="506322842#0_1" departPos="5.10" departSpeed="0.00" departDelay="0.00" arrival="8.00" arrivalLane="506322842#0_1" arrivalPos="69.48" arrivalSpeed="11.26" duration="8.00" routeLength="64.38" waitingTime="0.00" waitingCount="0" stopTime="0.00" timeLoss="2.73" rerouteNo="0" devices="tripinfo_Flow18.0" vType="Car18" speedFactor="0.90" vaporized=""/>
    <tripinfo id="Flow1.0" depart="0.00" departLane="910567294_1" departPos="5.10" departSpeed="0.00" departDelay="0.00" arrival="12.00" arrivalLane="506322856_1" arrivalPos="0.20" arrivalSpeed="11.88" duration="12.00" routeLength="84.20" waitingTime="0.00" waitingCount="0" stopTime="0.00" timeLoss="4.03" rerouteNo="0" devices="tripinfo_Flow1.0" vType="Car1" speedFactor="1.08" vaporized=""/>
    <tripinfo id="Flow19.0" depart="1.00" departLane="910567294_1" departPos="5.10" departSpeed="0.00" departDelay="1.00" arrival="14.00" arrivalLane="506322856_2" arrivalPos="0.20" arrivalSpeed="11.76" duration="13.00" routeLength="64.59" waitingTime="1.00" waitingCount="1" stopTime="0.00" timeLoss="6.11" rerouteNo="0" devices="tripinfo_Flow19.0" vType="Car19" speedFactor="0.93" vaporized=""/>
    <tripinfo id="Flow5.0" depart="0.00" departLane="-593847703#3_1" departPos="5.10" departSpeed="0.00" departDelay="0.00" arrival="14.00" arrivalLane="-593847703#3_1" arrivalPos="134.05" arrivalSpeed="12.77" duration="14.00" routeLength="128.95" waitingTime="0.00" waitingCount="0" stopTime="0.00" timeLoss="3.33" rerouteNo="0" devices="tripinfo_Flow5.0" vType="Car5" speedFactor="1.03" vaporized=""/>
    <tripinfo id="Flow15.0" depart="0.00" departLane="593849711#0_1" departPos="5.10" departSpeed="0.00" departDelay="0.00" arrival="15.00" arrivalLane="593849711#2_1" arrivalPos="109.31" arrivalSpeed="11.55" duration="15.00" routeLength="135.95" waitingTime="0.00" waitingCount="0" stopTime="0.00" timeLoss="3.52" rerouteNo="0" devices="tripinfo_Flow15.0" vType="Car15" speedFactor="1.09" vaporized=""/>
    <tripinfo id="Flow10.0" depart="0.00" departLane="288878926#0_0" departPos="5.10" departSpeed="0.00" departDelay="0.00" arrival="21.00" arrivalLane="49073272#3_0" arrivalPos="11.92" arrivalSpeed="16.60" duration="21.00" routeLength="225.76" waitingTime="0.00" waitingCount="0" stopTime="0.00" timeLoss="6.48" rerouteNo="0" devices="tripinfo_Flow10.0" vType="Car10" speedFactor="1.20" vaporized=""/>
    <tripinfo id="Flow8.0" depart="3.00" departLane="49073272#4_1" departPos="5.10" departSpeed="0.00" departDelay="3.00" arrival="23.00" arrivalLane="49073272#4_1" arrivalPos="194.88" arrivalSpeed="11.48" duration="20.00" routeLength="189.78" waitingTime="0.00" waitingCount="0" stopTime="0.00" timeLoss="3.63" rerouteNo="0" devices="tripinfo_Flow8.0" vType="Car8" speedFactor="0.87" vaporized=""/>
    <tripinfo id="Flow17.0" depart="3.00" departLane="288878926#0_0" departPos="5.10" departSpeed="0.00" departDelay="3.00" arrival="24.00" arrivalLane="288878926#0_0" arrivalPos="100.94" arrivalSpeed="4.98" duration="21.00" routeLength="95.84" waitingTime="0.00" waitingCount="0" stopTime="0.00" timeLoss="2.74" rerouteNo="0" devices="tripinfo_Flow17.0" vType="Car17" speedFactor="1.12" vaporized=""/>
    <tripinfo id="Flow7.0" depart="27.00" departLane="252657375_1" departPos="1.03" departSpeed="0.00" departDelay="27.00" arrival="28.00" arrivalLane="252657375_1" arrivalPos="1.03" arrivalSpeed="1.45" duration="1.00" routeLength="0.00" waitingTime="0.00" waitingCount="0" stopTime="0.00" timeLoss="0.90" rerouteNo="0" devices="tripinfo_Flow7.0" vType="Car7" speedFactor="1.01" vaporized=""/>
    <tripinfo id="Flow20.0" depart="0.00" departLane="-1334905223#2_1" departPos="5.10" departSpeed="0.00" departDelay="0.00" arrival="29.00" arrivalLane="506322840#0_1" arrivalPos="52.51" arrivalSpeed="10.92" duration="29.00" routeLength="156.59" waitingTime="5.00" waitingCount="1" stopTime="0.00" timeLoss="13.36" rerouteNo="0" devices="tripinfo_Flow20.0" vType="Car20" speedFactor="0.94" vaporized=""/>
    <tripinfo id="Flow7.1" depart="28.00" departLane="252657375_1" departPos="1.03" departSpeed="0.00" departDelay="13.60" arrival="29.00" arrivalLane="252657375_1" arrivalPos="1.03" arrivalSpeed="2.10" duration="1.00" routeLength="0.00" waitingTime="0.00" waitingCount="0" stopTime="0.00" timeLoss="0.85" rerouteNo="0" devices="tripinfo_Flow7.1" vType="Car7" speedFactor="0.99" vaporized=""/>
    <tripinfo id="Flow7.2" depart="29.00" departLane="252657375_1" departPos="1.03" departSpeed="0.00" departDelay="0.20" arrival="30.00" arrivalLane="252657375_1" arrivalPos="1.03" arrivalSpeed="1.71" duration="1.00" routeLength="0.00" waitingTime="0.00" waitingCount="0" stopTime="0.00" timeLoss="0.89" rerouteNo="0" devices="tripinfo_Flow7.2" vType="Car7" speedFactor="1.07" vaporized=""/>
    <tripinfo id="Flow16.0" depart="0.00" departLane="300077497#0_1" departPos="5.10" departSpeed="0.00" departDelay="0.00" arrival="38.00" arrivalLane="1334905225_1" arrivalPos="12.76" arrivalSpeed="11.39" duration="38.00" routeLength="282.86" waitingTime="7.00" waitingCount="1" stopTime="0.00" timeLoss="15.89" rerouteNo="0" devices="tripinfo_Flow16.0" vType="Car16" speedFactor="0.92" vaporized=""/>
    <tripinfo id="Flow9.0" depart="1.00" departLane="196961215#2_0" departPos="5.10" departSpeed="0.00" departDelay="1.00" arrival="42.00" arrivalLane="49073272#0_1" arrivalPos="1.63" arrivalSpeed="5.00" duration="41.00" routeLength="179.52" waitingTime="10.00" waitingCount="2" stopTime="0.00" timeLoss="27.97" rerouteNo="0" devices="tripinfo_Flow9.0" vType="Car9" speedFactor="1.03" vaporized=""/>
    <tripinfo id="Flow7.3" depart="44.00" departLane="252657375_1" departPos="1.03" departSpeed="0.00" departDelay="0.80" arrival="45.00" arrivalLane="252657375_1" arrivalPos="1.03" arrivalSpeed="2.30" duration="1.00" routeLength="0.00" waitingTime="0.00" waitingCount="0" stopTime="0.00" timeLoss="0.85" rerouteNo="0" devices="tripinfo_Flow7.3" vType="Car7" speedFactor="1.10" vaporized=""/>
    <tripinfo id="Flow18.1" depart="40.00" departLane="506322842#0_1" departPos="5.10" departSpeed="0.00" departDelay="0.00" arrival="48.00" arrivalLane="506322842#0_1" arrivalPos="69.48" arrivalSpeed="13.04" duration="8.00" routeLength="64.38" waitingTime="0.00" waitingCount="0" stopTime="0.00" timeLoss="3.02" rerouteNo="0" devices="tripinfo_Flow18.1" vType="Car18" speedFactor="1.17" vaporized=""/>
    <tripinfo id="Flow10.1" depart="15.00" departLane="288878926#0_0" departPos="5.10" departSpeed="0.00" departDelay="0.71" arrival="49.00" arrivalLane="49073272#3_0" arrivalPos="11.92" arrivalSpeed="15.01" duration="34.00" routeLength="225.76" waitingTime="8.00" waitingCount="1" stopTime="0.00" timeLoss="19.00" rerouteNo="0" devices="tripinfo_Flow10.1" vType="Car10" speedFactor="1.12" vaporized=""/>
    <tripinfo id="Flow8.1" depart="33.00" departLane="49073272#4_1" departPos="5.10" departSpeed="0.00" departDelay="0.27" arrival="52.00" arrivalLane="49073272#4_1" arrivalPos="194.88" arrivalSpeed="12.24" duration="19.00" routeLength="189.78" waitingTime="0.00" waitingCount="0" stopTime="0.00" timeLoss="3.51" rerouteNo="0" devices="tripinfo_Flow8.1" vType="Car8" speedFactor="0.90" vaporized=""/>
    <tripinfo id="Flow1.1" depart="44.00" departLane="910567294_1" departPos="5.10" departSpeed="0.00" departDelay="0.10" arrival="56.00" arrivalLane="506322856_2" arrivalPos="0.20" arrivalSpeed="11.19" duration="12.00" routeLength="64.59" waitingTime="0.00" waitingCount="0" stopTime="0.00" timeLoss="4.88" rerouteNo="0" devices="tripinfo_Flow1.1" vType="Car1" speedFactor="0.90" vaporized=""/>
    <tripinfo id="Flow9.1" depart="29.00" departLane="196961215#2_0" departPos="5.10" departSpeed="0.00" departDelay="0.65" arrival="57.00" arrivalLane="49073272#0_2" arrivalPos="1.63" arrivalSpeed="9.79" duration="28.00" routeLength="179.52" waitingTime="2.00" waitingCount="1" stopTime="0.00" timeLoss="11.87" rerouteNo="0" devices="tripinfo_Flow9.1" vType="Car9" speedFactor="0.83" vaporized=""/>
    <tripinfo id="Flow19.1" depart="48.00" departLane="910567294_1" departPos="5.10" departSpeed="0.00" departDelay="0.63" arrival="59.00" arrivalLane="506322856_2" arrivalPos="0.20" arrivalSpeed="11.65" duration="11.00" routeLength="64.59" waitingTime="0.00" waitingCount="0" stopTime="0.00" timeLoss="3.88" rerouteNo="0" devices="tripinfo_Flow19.1" vType="Car19" speedFactor="1.00" vaporized=""/>
    <tripinfo id="Flow7.4" depart="58.00" departLane="252657375_1" departPos="1.03" departSpeed="0.00" departDelay="0.40" arrival="59.00" arrivalLane="252657375_1" arrivalPos="1.03" arrivalSpeed="2.50" duration="1.00" routeLength="0.00" waitingTime="0.00" waitingCount="0" stopTime="0.00" timeLoss="0.83" rerouteNo="0" devices="tripinfo_Flow7.4" vType="Car7" speedFactor="1.06" vaporized=""/>
    <tripinfo id="Flow12.0" depart="0.00" departLane="51392846#0_0" departPos="5.10" departSpeed="0.00" departDelay="0.00" arrival="63.00" arrivalLane="49073226#2_2" arrivalPos="55.18" arrivalSpeed="13.87" duration="63.00" routeLength="480.93" waitingTime="14.00" waitingCount="1" stopTime="0.00" timeLoss="28.86" rerouteNo="0" devices="tripinfo_Flow12.0" vType="Car12" speedFactor="1.08" vaporized=""/>
    <tripinfo id="Flow12.1" depart="11.00" departLane="51392846#0_0" departPos="5.10" departSpeed="0.00" departDelay="0.53" arrival="65.00" arrivalLane="49073226#2_2" arrivalPos="55.18" arrivalSpeed="12.41" duration="54.00" routeLength="480.93" waitingTime="1.00" waitingCount="1" stopTime="0.00" timeLoss="13.81" rerouteNo="0" devices="tripinfo_Flow12.1" vType="Car12" speedFactor="0.89" vaporized=""/>
    <tripinfo id="Flow11.0" depart="0.00" departLane="506322851#0_1" departPos="5.10" departSpeed="0.00" departDelay="0.00" arrival="67.00" arrivalLane="910567293_0" arrivalPos="0.20" arrivalSpeed="4.61" duration="67.00" routeLength="436.57" waitingTime="25.00" waitingCount="1" stopTime="0.00" timeLoss="36.33" rerouteNo="0" devices="tripinfo_Flow11.0" vType="Car11" speedFactor="1.05" vaporized=""/>
    <tripinfo id="Flow12.2" depart="21.00" departLane="51392846#0_0" departPos="5.10" departSpeed="0.00" departDelay="0.07" arrival="67.00" arrivalLane="49073226#2_2" arrivalPos="55.18" arrivalSpeed="13.56" duration="46.00" routeLength="480.93" waitingTime="0.00" waitingCount="0" stopTime="0.00" timeLoss="10.46" rerouteNo="0" devices="tripinfo_Flow12.2" vType="Car12" speedFactor="1.02" vaporized=""/>
    <tripinfo id="Flow20.1" depart="24.00" departLane="-1334905223#2_1" departPos="5.10" departSpeed="0.00" departDelay="0.00" arrival="71.00" arrivalLane="506322840#0_1" arrivalPos="52.51" arrivalSpeed="10.78" duration="47.00" routeLength="156.59" waitingTime="21.00" waitingCount="2" stopTime="0.00" timeLoss="31.75" rerouteNo="0" devices="tripinfo_Flow20.1" vType="Car20" speedFactor="1.10" vaporized=""/>
    <tripinfo id="Flow7.5" depart="72.00" departLane="252657375_1" departPos="1.03" departSpeed="0.00" departDelay="0.00" arrival="73.00" arrivalLane="252657375_1" arrivalPos="1.03" arrivalSpeed="1.63" duration="1.00" routeLength="0.00" waitingTime="0.00" waitingCount="0" stopTime="0.00" timeLoss="0.88" rerouteNo="0" devices="tripinfo_Flow7.5" vType="Car7" speedFactor="1.01" vaporized=""/>
    <tripinfo id="Flow10.2" depart="29.00" departLane="288878926#0_0" departPos="5.10" departSpeed="0.00" departDelay="0.43" arrival="77.00" arrivalLane="49073272#3_0" arrivalPos="11.92" arrivalSpeed="13.05" duration="48.00" routeLength="225.76" waitingTime="19.00" waitingCount="2" stopTime="0.00" timeLoss="32.00" rerouteNo="0" devices="tripinfo_Flow10.2" vType="Car10" speedFactor="1.03" vaporized=""/>
    <tripinfo id="Flow10.3" depart="43.00" departLane="288878926#0_0" departPos="5.10" departSpeed="0.00" departDelay="0.14" arrival="78.00" arrivalLane="49073272#3_1" arrivalPos="11.92" arrivalSpeed="13.23" duration="35.00" routeLength="225.76" waitingTime="5.00" waitingCount="1" stopTime="0.00" timeLoss="18.18" rerouteNo="0" devices="tripinfo_Flow10.3" vType="Car10" speedFactor="1.00" vaporized=""/>
    <tripinfo id="Flow6.0" depart="0.00" departLane="49073272#4_1" departPos="5.10" departSpeed="0.00" departDelay="0.00" arrival="79.00" arrivalLane="506322856_1" arrivalPos="0.20" arrivalSpeed="12.00" duration="79.00" routeLength="263.57" waitingTime="48.00" waitingCount="1" stopTime="0.00" timeLoss="57.52" rerouteNo="0" devices="tripinfo_Flow6.0" vType="Car6" speedFactor="0.89" vaporized=""/>
    <tripinfo id="Flow15.1" depart="48.00" departLane="593849715_1" departPos="0.20" departSpeed="0.00" departDelay="0.63" arrival="80.00" arrivalLane="-593847701_1" arrivalPos="0.20" arrivalSpeed="4.06" duration="32.00" routeLength="168.91" waitingTime="12.00" waitingCount="1" stopTime="0.00" timeLoss="19.24" rerouteNo="0" devices="tripinfo_Flow15.1" vType="Car15" speedFactor="1.02" vaporized=""/>
    <tripinfo id="Flow6.1" depart="10.00" departLane="49073272#4_1" departPos="5.10" departSpeed="0.00" departDelay="0.11" arrival="81.00" arrivalLane="506322856_1" arrivalPos="0.20" arrivalSpeed="14.60" duration="71.00" routeLength="263.57" waitingTime="43.00" waitingCount="1" stopTime="0.00" timeLoss="53.81" rerouteNo="0" devices="tripinfo_Flow6.1" vType="Car6" speedFactor="1.13" vaporized=""/>
    <tripinfo id="Flow6.2" depart="21.00" departLane="49073272#4_1" departPos="5.10" departSpeed="0.00" departDelay="1.22" arrival="83.00" arrivalLane="506322856_1" arrivalPos="0.20" arrivalSpeed="13.39" duration="62.00" routeLength="263.57" waitingTime="33.00" waitingCount="1" stopTime="0.00" timeLoss="41.93" rerouteNo="0" devices="tripinfo_Flow6.2" vType="Car6" speedFactor="0.97" vaporized=""/>
    <tripinfo id="Flow8.2" depart="66.00" departLane="49073272#4_1" departPos="5.10" departSpeed="0.00" departDelay="0.55" arrival="84.00" arrivalLane="49073272#4_1" arrivalPos="194.88" arrivalSpeed="11.72" duration="18.00" routeLength="189.78" waitingTime="0.00" waitingCount="0" stopTime="0.00" timeLoss="3.08" rerouteNo="0" devices="tripinfo_Flow8.2" vType="Car8" speedFactor="0.92" vaporized=""/>
    <tripinfo id="Flow6.3" depart="30.00" departLane="49073272#4_1" departPos="5.10" departSpeed="0.00" departDelay="0.33" arrival="85.00" arrivalLane="506322856_1" arrivalPos="0.20" arrivalSpeed="14.30" duration="55.00" routeLength="263.57" waitingTime="25.00" waitingCount="1" stopTime="0.00" timeLoss="36.05" rerouteNo="0" devices="tripinfo_Flow6.3" vType="Car6" speedFactor="1.04" vaporized=""/>
    <tripinfo id="Flow6.4" depart="40.00" departLane="49073272#4_1" departPos="5.10" departSpeed="0.00" departDelay="0.44" arrival="87.00" arrivalLane="506322856_1" arrivalPos="0.20" arrivalSpeed="13.56" duration="47.00" routeLength="263.57" waitingTime="18.00" waitingCount="1" stopTime="0.00" timeLoss="28.41" rerouteNo="0" devices="tripinfo_Flow6.4" vType="Car6" speedFactor="1.06" vaporized=""/>
    <tripinfo id="Flow18.2" depart="80.00" departLane="506322842#0_1" departPos="5.10" departSpeed="0.00" departDelay="0.00" arrival="88.00" arrivalLane="506322842#0_1" arrivalPos="69.48" arrivalSpeed="12.80" duration="8.00" routeLength="64.38" waitingTime="0.00" waitingCount="0" stopTime="0.00" timeLoss="2.80" rerouteNo="0" devices="tripinfo_Flow18.2" vType="Car18" speedFactor="1.06" vaporized=""/>
    <tripinfo id="Flow7.6" depart="87.00" departLane="252657375_1" departPos="1.03" departSpeed="0.00" departDelay="0.60" arrival="88.00" arrivalLane="252657375_1" arrivalPos="1.03" arrivalSpeed="2.43" duration="1.00" routeLength="0.00" waitingTime="0.00" waitingCount="0" stopTime="0.00" timeLoss="0.84" rerouteNo="0" devices="tripinfo_Flow7.6" vType="Car7" speedFactor="1.10" vaporized=""/>
    <tripinfo id="Flow6.5" depart="50.00" departLane="49073272#4_1" departPos="5.10" departSpeed="0.00" departDelay="0.55" arrival="89.00" arrivalLane="506322856_1" arrivalPos="0.20" arrivalSpeed="13.63" duration="39.00" routeLength="263.57" waitingTime="8.00" waitingCount="1" stopTime="0.00" timeLoss="19.03" rerouteNo="0" devices="tripinfo_Flow6.5" vType="Car6" speedFactor="0.99" vaporized=""/>
    <tripinfo id="Flow6.6" depart="60.00" departLane="49073272#4_1" departPos="5.10" departSpeed="0.00" departDelay="0.66" arrival="92.00" arrivalLane="506322856_1" arrivalPos="0.20" arrivalSpeed="14.73" duration="32.00" routeLength="263.57" waitingTime="2.00" waitingCount="1" stopTime="0.00" timeLoss="14.76" rerouteNo="0" devices="tripinfo_Flow6.6" vType="Car6" speedFactor="1.12" vaporized=""/>
    <tripinfo id="Flow6.7" depart="70.00" departLane="49073272#4_1" departPos="5.10" departSpeed="0.00" departDelay="0.77" arrival="94.00" arrivalLane="506322856_1" arrivalPos="0.20" arrivalSpeed="13.48" duration="24.00" routeLength="263.57" waitingTime="0.00" waitingCount="0" stopTime="0.00" timeLoss="5.05" rerouteNo="0" devices="tripinfo_Flow6.7" vType="Car6" speedFactor="1.02" vaporized=""/>
    <tripinfo id="Flow4.0" depart="0.00" departLane="51362429#0_0" departPos="5.10" departSpeed="0.00" departDelay="0.00" arrival="98.00" arrivalLane="49695736#0_1" arrivalPos="87.91" arrivalSpeed="13.52" duration="98.00" routeLength="376.34" waitingTime="50.00" waitingCount="2" stopTime="0.00" timeLoss="67.62" rerouteNo="0" devices="tripinfo_Flow4.0" vType="Car4" speedFactor="1.01" vaporized=""/>
    <tripinfo id="Flow12.4" depart="42.00" departLane="51392846#0_0" departPos="5.10" departSpeed="0.00" departDelay="0.14" arrival="102.00" arrivalLane="49073226#2_2" arrivalPos="55.18" arrivalSpeed="14.20" duration="60.00" routeLength="480.93" waitingTime="10.00" waitingCount="1" stopTime="0.00" timeLoss="24.95" rerouteNo="0" devices="tripinfo_Flow12.4" vType="Car12" speedFactor="1.05" vaporized=""/>
    <tripinfo id="Flow7.7" depart="101.00" departLane="252657375_1" departPos="1.03" departSpeed="0.00" departDelay="0.20" arrival="102.00" arrivalLane="252657375_1" arrivalPos="1.03" arrivalSpeed="2.20" duration="1.00" routeLength="0.00" waitingTime="0.00" waitingCount="0" stopTime="0.00" timeLoss="0.87" rerouteNo="0" devices="tripinfo_Flow7.7" vType="Car7" speedFactor="1.18" vaporized=""/>
    <tripinfo id="Flow0.0" depart="0.00" departLane="196961215#2_0" departPos="5.10" departSpeed="0.00" departDelay="0.00" arrival="105.00" arrivalLane="910567293_0" arrivalPos="0.20" arrivalSpeed="4.37" duration="105.00" routeLength="567.03" waitingTime="25.00" waitingCount="5" stopTime="0.00" timeLoss="58.57" rerouteNo="0" devices="tripinfo_Flow0.0" vType="Car0" speedFactor="0.98" vaporized=""/>
    <tripinfo id="Flow10.4" depart="58.00" departLane="288878926#0_0" departPos="5.10" departSpeed="0.00" departDelay="0.86" arrival="105.00" arrivalLane="49073272#3_0" arrivalPos="11.92" arrivalSpeed="11.63" duration="47.00" routeLength="225.76" waitingTime="16.00" waitingCount="2" stopTime="0.00" timeLoss="29.03" rerouteNo="0" devices="tripinfo_Flow10.4" vType="Car10" speedFactor="0.93" vaporized=""/>
    <tripinfo id="Flow10.5" depart="72.00" departLane="288878926#0_0" departPos="5.10" departSpeed="0.00" departDelay="0.57" arrival="105.00" arrivalLane="49073272#3_1" arrivalPos="11.92" arrivalSpeed="12.76" duration="33.00" routeLength="225.76" waitingTime="6.00" waitingCount="1" stopTime="0.00" timeLoss="16.02" rerouteNo="0" devices="tripinfo_Flow10.5" vType="Car10" speedFactor="0.98" vaporized=""/>
    <tripinfo id="Flow1.2" depart="88.00" departLane="910567294_1" departPos="5.10" departSpeed="0.00" departDelay="0.20" arrival="111.00" arrivalLane="506322856_2" arrivalPos="0.20" arrivalSpeed="13.04" duration="23.00" routeLength="64.59" waitingTime="12.00" waitingCount="1" stopTime="0.00" timeLoss="16.48" rerouteNo="0" devices="tripinfo_Flow1.2" vType="Car1" speedFactor="1.14" vaporized=""/>
    <tripinfo id="Flow17.1" depart="89.00" departLane="288878926#0_0" departPos="5.10" departSpeed="0.00" departDelay="1.19" arrival="111.00" arrivalLane="288878926#0_0" arrivalPos="100.94" arrivalSpeed="5.22" duration="22.00" routeLength="95.84" waitingTime="0.00" waitingCount="0" stopTime="0.00" timeLoss="3.64" rerouteNo="0" devices="tripinfo_Flow17.1" vType="Car17" speedFactor="0.97" vaporized=""/>
    <tripinfo id="Flow15.2" depart="95.00" departLane="593849711#0_1" departPos="5.10" departSpeed="0.00" departDelay="0.26" arrival="111.00" arrivalLane="593849711#2_1" arrivalPos="109.31" arrivalSpeed="10.60" duration="16.00" routeLength="135.95" waitingTime="0.00" waitingCount="0" stopTime="0.00" timeLoss="3.70" rerouteNo="0" devices="tripinfo_Flow15.2" vType="Car15" speedFactor="1.03" vaporized=""/>
    <tripinfo id="Flow20.2" depart="48.00" departLane="-1334905223#2_1" departPos="5.10" departSpeed="0.00" departDelay="0.00" arrival="112.00" arrivalLane="506322840#0_1" arrivalPos="52.51" arrivalSpeed="10.99" duration="64.00" routeLength="156.59" waitingTime="36.00" waitingCount="2" stopTime="0.00" timeLoss="49.25" rerouteNo="0" devices="tripinfo_Flow20.2" vType="Car20" speedFactor="1.00" vaporized=""/>
    <tripinfo id="Flow5.1" depart="98.00" departLane="-593847703#3_1" departPos="5.10" departSpeed="0.00" departDelay="0.70" arrival="112.00" arrivalLane="-593847703#3_1" arrivalPos="134.05" arrivalSpeed="11.23" duration="14.00" routeLength="128.95" waitingTime="0.00" waitingCount="0" stopTime="0.00" timeLoss="2.90" rerouteNo="0" devices="tripinfo_Flow5.1" vType="Car5" speedFactor="0.87" vaporized=""/>
    <tripinfo id="Flow20.3" depart="72.00" departLane="-1334905223#2_1" departPos="5.10" departSpeed="0.00" departDelay="0.00" arrival="115.00" arrivalLane="506322840#0_1" arrivalPos="52.51" arrivalSpeed="10.84" duration="43.00" routeLength="156.59" waitingTime="17.00" waitingCount="1" stopTime="0.00" timeLoss="28.05" rerouteNo="0" devices="tripinfo_Flow20.3" vType="Car20" speedFactor="0.98" vaporized=""/>
    <tripinfo id="Flow8.3" depart="99.00" departLane="49073272#4_1" departPos="5.10" departSpeed="0.00" departDelay="0.82" arrival="116.00" arrivalLane="49073272#4_1" arrivalPos="194.88" arrivalSpeed="13.14" duration="17.00" routeLength="189.78" waitingTime="0.00" waitingCount="0" stopTime="0.00" timeLoss="3.62" rerouteNo="0" devices="tripinfo_Flow8.3" vType="Car8" speedFactor="1.02" vaporized=""/>
    <tripinfo id="Flow19.2" depart="102.00" departLane="910567294_1" departPos="5.10" departSpeed="0.00" departDelay="7.26" arrival="117.00" arrivalLane="506322856_2" arrivalPos="0.20" arrivalSpeed="12.34" duration="15.00" routeLength="64.59" waitingTime="3.00" waitingCount="2" stopTime="0.00" timeLoss="8.02" rerouteNo="0" devices="tripinfo_Flow19.2" vType="Car19" speedFactor="0.98" vaporized=""/>
    <tripinfo id="Flow2.0" depart="3.00" departLane="910567294_1" departPos="5.10" departSpeed="0.00" departDelay="3.00" arrival="118.00" arrivalLane="593852345#0_0" arrivalPos="121.52" arrivalSpeed="13.32" duration="115.00" routeLength="582.08" waitingTime="53.00" waitingCount="2" stopTime="0.00" timeLoss="71.34" rerouteNo="0" devices="tripinfo_Flow2.0" vType="Car2" speedFactor="1.04" vaporized=""/>
    <tripinfo id="Flow20.4" depart="96.00" departLane="-1334905223#2_1" departPos="5.10" departSpeed="0.00" departDelay="0.00" arrival="118.00" arrivalLane="506322840#0_1" arrivalPos="52.51" arrivalSpeed="10.79" duration="22.00" routeLength="156.59" waitingTime="0.00" waitingCount="0" stopTime="0.00" timeLoss="7.31" rerouteNo="0" devices="tripinfo_Flow20.4" vType="Car20" speedFactor="1.25" vaporized=""/>
    <tripinfo id="Flow2.1" depart="12.00" departLane="910567294_1" departPos="5.10" departSpeed="0.00" departDelay="0.68" arrival="119.00" arrivalLane="593852345#0_0" arrivalPos="121.52" arrivalSpeed="15.07" duration="107.00" routeLength="562.47" waitingTime="51.00" waitingCount="2" stopTime="0.00" timeLoss="70.14" rerouteNo="0" devices="tripinfo_Flow2.1" vType="Car2" speedFactor="1.15" vaporized=""/>
    <tripinfo id="Flow14.1" depart="51.00" departLane="238526531#0_1" departPos="5.10" departSpeed="0.00" departDelay="0.30" arrival="121.00" arrivalLane="506322846#2_4" arrivalPos="50.25" arrivalSpeed="12.37" duration="70.00" routeLength="591.13" waitingTime="6.00" waitingCount="1" stopTime="0.00" timeLoss="19.38" rerouteNo="0" devices="tripinfo_Flow14.1" vType="Car14" speedFactor="0.96" vaporized=""/>
    <tripinfo id="Flow12.5" depart="53.00" departLane="593842812#0_0" departPos="5.10" departSpeed="0.00" departDelay="0.67" arrival="121.00" arrivalLane="49073226#2_1" arrivalPos="55.18" arrivalSpeed="11.70" duration="68.00" routeLength="559.15" waitingTime="5.00" waitingCount="1" stopTime="0.00" timeLoss="23.34" rerouteNo="0" devices="tripinfo_Flow12.5" vType="Car12" speedFactor="0.91" vaporized=""/>
    <tripinfo id="Flow2.2" depart="23.00" departLane="910567294_1" departPos="5.10" departSpeed="0.00" departDelay="0.36" arrival="122.00" arrivalLane="593852345#0_0" arrivalPos="121.52" arrivalSpeed="13.03" duration="99.00" routeLength="562.47" waitingTime="32.00" waitingCount="3" stopTime="0.00" timeLoss="53.83" rerouteNo="0" devices="tripinfo_Flow2.2" vType="Car2" speedFactor="0.94" vaporized=""/>
    <tripinfo id="Flow3.0" depart="0.00" departLane="244450512#4_0" departPos="5.10" departSpeed="0.00" departDelay="0.00" arrival="124.00" arrivalLane="263217603#0_1" arrivalPos="29.31" arrivalSpeed="12.43" duration="124.00" routeLength="741.79" waitingTime="44.00" waitingCount="3" stopTime="0.00" timeLoss="63.84" rerouteNo="0" devices="tripinfo_Flow3.0" vType="Car3" speedFactor="1.08" vaporized=""/>
    <tripinfo id="Flow9.3" depart="86.00" departLane="196961215#2_0" departPos="5.10" departSpeed="0.00" departDelay="0.96" arrival="126.00" arrivalLane="49073272#0_2" arrivalPos="1.63" arrivalSpeed="7.29" duration="40.00" routeLength="179.52" waitingTime="9.00" waitingCount="1" stopTime="0.00" timeLoss="24.76" rerouteNo="0" devices="tripinfo_Flow9.3" vType="Car9" speedFactor="0.91" vaporized=""/>
    <tripinfo id="Flow18.3" depart="120.00" departLane="506322842#0_1" departPos="5.10" departSpeed="0.00" departDelay="0.00" arrival="129.00" arrivalLane="506322842#0_1" arrivalPos="69.48" arrivalSpeed="11.31" duration="9.00" routeLength="64.38" waitingTime="0.00" waitingCount="0" stopTime="0.00" timeLoss="2.53" rerouteNo="0" devices="tripinfo_Flow18.3" vType="Car18" speedFactor="0.84" vaporized=""/>
    <tripinfo id="Flow13.0" depart="0.00" departLane="252657375_1" departPos="1.03" departSpeed="0.00" departDelay="0.00" arrival="131.00" arrivalLane="182334378#0_1" arrivalPos="86.08" arrivalSpeed="12.52" duration="131.00" routeLength="763.88" waitingTime="54.00" waitingCount="3" stopTime="0.00" timeLoss="71.68" rerouteNo="0" devices="tripinfo_Flow13.0" vType="Car13" speedFactor="0.94" vaporized=""/>
    <tripinfo id="Flow13.1" depart="34.00" departLane="252657375_1" departPos="1.03" departSpeed="0.00" departDelay="0.35" arrival="131.00" arrivalLane="182334378#0_2" arrivalPos="86.08" arrivalSpeed="13.93" duration="97.00" routeLength="763.88" waitingTime="21.00" waitingCount="1" stopTime="0.00" timeLoss="41.94" rerouteNo="0" devices="tripinfo_Flow13.1" vType="Car13" speedFactor="1.02" vaporized=""/>
    <tripinfo id="Flow10.6" depart="86.00" departLane="288878926#0_0" departPos="5.10" departSpeed="0.00" departDelay="0.28" arrival="132.00" arrivalLane="49073272#3_0" arrivalPos="11.92" arrivalSpeed="15.85" duration="46.00" routeLength="225.76" waitingTime="16.00" waitingCount="2" stopTime="0.00" timeLoss="31.69" rerouteNo="0" devices="tripinfo_Flow10.6" vType="Car10" speedFactor="1.14" vaporized=""/>
    <tripinfo id="Flow9.2" depart="57.00" departLane="196961215#2_0" departPos="5.10" departSpeed="0.00" departDelay="0.31" arrival="133.00" arrivalLane="49073272#0_1" arrivalPos="1.63" arrivalSpeed="5.93" duration="76.00" routeLength="428.21" waitingTime="25.00" waitingCount="2" stopTime="0.00" timeLoss="44.04" rerouteNo="0" devices="tripinfo_Flow9.2" vType="Car9" speedFactor="1.02" vaporized=""/>
    <tripinfo id="Flow12.3" depart="32.00" departLane="593842812#0_0" departPos="5.10" departSpeed="0.00" departDelay="0.60" arrival="140.00" arrivalLane="49073226#2_2" arrivalPos="55.18" arrivalSpeed="9.78" duration="108.00" routeLength="480.92" waitingTime="47.00" waitingCount="2" stopTime="0.00" timeLoss="62.86" rerouteNo="0" devices="tripinfo_Flow12.3" vType="Car12" speedFactor="0.77" vaporized=""/>