<?xml version="1.0" encoding="UTF-8"?>

<!-- generated on 2025-11-12 01:11:44 by Eclipse SUMO GUI Version 1.24.0
<sumoConfiguration xmlns:xsi="http://www.w3.org/2001/XMLSchema-instance" xsi:noNamespaceSchemaLocation="http://sumo.dlr.de/xsd/sumoConfiguration.xsd">

    <input>
        <net-file value="C:\Users\10Pis\Downloads\Senior_Project\System-of-the-control-traffic-light\data\ntut-the%20way.net.xml"/>
        <route-files value="C:\Users\10Pis\Downloads\Senior_Project\System-of-the-control-traffic-light\data\2025-09-23-23-41-00/osm.pedestrian.rou.xml,C:\Users\10Pis\Downloads\Senior_Project\System-of-the-control-traffic-light\data\output.rou.xml"/>
        <additional-files value="C:\Users\10Pis\Downloads\Senior_Project\System-of-the-control-traffic-light\data\2025-09-23-23-41-00/output.add.xml"/>
    </input>

    <output>
        <tripinfo-output value="C:\Users\10Pis\Downloads\Senior_Project\System-of-the-control-traffic-light\data\2025-09-23-23-41-00/tripinfos.xml"/>
        <statistic-output value="C:\Users\10Pis\Downloads\Senior_Project\System-of-the-control-traffic-light\data\2025-09-23-23-41-00/stats.xml"/>
    </output>

    <processing>
        <ignore-route-errors value="true"/>
        <tls.actuated.jam-threshold value="30"/>
    </processing>

    <routing>
        <device.rerouting.adaptation-steps value="18"/>
        <device.rerouting.adaptation-interval value="10"/>
    </routing>

    <report>
        <verbose value="true"/>
        <duration-log.statistics value="true"/>
        <no-step-log value="true"/>
    </report>

    <gui_only>
        <gui-settings-file value="C:\Users\10Pis\Downloads\Senior_Project\System-of-the-control-traffic-light\data\2025-09-23-23-41-00/osm.view.xml"/>
    </gui_only>

</sumoConfiguration>
-->

<meandata xmlns:xsi="http://www.w3.org/2001/XMLSchema-instance" xsi:noNamespaceSchemaLocation="http://sumo.dlr.de/xsd/meandata_file.xsd">
    <interval begin="0.00" end="709.00" id="wizard_example">
        <edge id="-1334905223#2" sampledSeconds="174.82" traveltime="20.84" overlapTraveltime="21.41" density="4.12" laneDensity="4.12" occupancy="1.97" waitingTime="93.00" timeLoss="134.93" speed="3.03" speedRelative="0.22" departed="15" arrived="0" entered="0" left="15" laneChangedFrom="0" laneChangedTo="0"/>
        <edge id="-1334905224" sampledSeconds="10.79" traveltime="0.03" overlapTraveltime="0.83" density="76.12" laneDensity="76.12" occupancy="1.46" waitingTime="0.00" timeLoss="5.96" speed="6.26" speedRelative="0.45" departed="0" arrived="0" entered="13" left="13" laneChangedFrom="0" laneChangedTo="0"/>
        <edge id="-1334905225" sampledSeconds="452.75" traveltime="33.56" overlapTraveltime="34.83" density="50.05" laneDensity="50.05" occupancy="23.09" waitingTime="383.00" timeLoss="435.38" speed="0.51" speedRelative="0.04" departed="0" arrived="0" entered="13" left="13" laneChangedFrom="0" laneChangedTo="0"/>
        <edge id="-182336886" sampledSeconds="0.00" departed="0" arrived="0" entered="0" left="0" laneChangedFrom="0" laneChangedTo="0"/>
        <edge id="-186602412#3" sampledSeconds="0.00" departed="0" arrived="0" entered="0" left="0" laneChangedFrom="0" laneChangedTo="0"/>
        <edge id="-260882327" sampledSeconds="0.00" departed="0" arrived="0" entered="0" left="0" laneChangedFrom="0" laneChangedTo="0"/>
        <edge id="-300077497#5" sampledSeconds="0.00" departed="0" arrived="0" entered="0" left="0" laneChangedFrom="0" laneChangedTo="0"/>
        <edge id="-300077497#8" sampledSeconds="0.00" departed="0" arrived="0" entered="0" left="0" laneChangedFrom="0" laneChangedTo="0"/>
        <edge id="-304148115" sampledSeconds="53.21" traveltime="3.91" overlapTraveltime="4.84" density="8.07" laneDensity="8.07" occupancy="3.35" waitingTime="24.00" timeLoss="35.75" speed="2.96" speedRelative="0.21" departed="0" arrived="0" entered="11" left="11" laneChangedFrom="0" laneChangedTo="0"/>
        <edge id="-35274074#2" sampledSeconds="43.01" traveltime="12.68" overlapTraveltime="14.34" density="0.69" laneDensity="0.69" occupancy="0.31" waitingTime="0.00" timeLoss="6.22" speed="6.52" speedRelative="0.47" departed="0" arrived="0" entered="3" left="3" laneChangedFrom="0" laneChangedTo="0"/>
        <edge id="-360018417" sampledSeconds="0.00" departed="0" arrived="0" entered="0" left="0" laneChangedFrom="0" laneChangedTo="0"/>
        <edge id="-49073264#1" sampledSeconds="0.00" departed="0" arrived="0" entered="0" left="0" laneChangedFrom="0" laneChangedTo="0"/>
        <edge id="-49695726" sampledSeconds="0.00" departed="0" arrived="0" entered="0" left="0" laneChangedFrom="0" laneChangedTo="0"/>
        <edge id="-506322847#4" sampledSeconds="0.00" departed="0" arrived="0" entered="0" left="0" laneChangedFrom="0" laneChangedTo="0"/>
        <edge id="-51362368" sampledSeconds="0.00" departed="0" arrived="0" entered="0" left="0" laneChangedFrom="0" laneChangedTo="0"/>
        <edge id="-51362429#1" sampledSeconds="0.00" departed="0" arrived="0" entered="0" left="0" laneChangedFrom="0" laneChangedTo="0"/>
        <edge id="-51362430" sampledSeconds="0.00" departed="0" arrived="0" entered="0" left="0" laneChangedFrom="0" laneChangedTo="0"/>
        <edge id="-51392846#1" sampledSeconds="0.00" departed="0" arrived="0" entered="0" left="0" laneChangedFrom="0" laneChangedTo="0"/>
        <edge id="-545977624#2" sampledSeconds="0.00" departed="0" arrived="0" entered="0" left="0" laneChangedFrom="0" laneChangedTo="0"/>
        <edge id="-593847701" sampledSeconds="0.12" traveltime="0.05" overlapTraveltime="1.35" density="0.85" laneDensity="0.85" occupancy="0.01" waitingTime="0.00" timeLoss="0.08" speed="3.85" speedRelative="0.28" departed="0" arrived="1" entered="1" left="0" laneChangedFrom="0" laneChangedTo="0"/>
        <edge id="-593847703#3" sampledSeconds="4.95" traveltime="10.80" overlapTraveltime="11.23" density="0.05" laneDensity="0.03" occupancy="0.01" waitingTime="0.00" timeLoss="0.30" speed="12.38" speedRelative="0.89" departed="1" arrived="1" entered="0" left="0" laneChangedFrom="0" laneChangedTo="0"/>
        <edge id="-593847704#2" sampledSeconds="357.27" traveltime="58.20" overlapTraveltime="59.54" density="3.27" laneDensity="3.27" occupancy="1.61" waitingTime="254.00" timeLoss="291.57" speed="2.67" speedRelative="0.19" departed="0" arrived="0" entered="6" left="6" laneChangedFrom="0" laneChangedTo="0"/>
        <edge id="-593847705" sampledSeconds="0.00" departed="0" arrived="0" entered="0" left="0" laneChangedFrom="0" laneChangedTo="0"/>
        <edge id="-593849724" sampledSeconds="22.35" traveltime="5.02" overlapTraveltime="5.59" density="0.71" laneDensity="0.71" occupancy="0.31" waitingTime="0.00" timeLoss="9.37" speed="8.83" speedRelative="0.64" departed="0" arrived="0" entered="4" left="4" laneChangedFrom="0" laneChangedTo="0"/>
        <edge id="-594658757#2" sampledSeconds="37.73" traveltime="36.28" overlapTraveltime="37.73" density="0.29" laneDensity="0.29" occupancy="0.14" waitingTime="21.00" timeLoss="25.08" speed="4.92" speedRelative="0.35" departed="0" arrived="0" entered="1" left="1" laneChangedFrom="0" laneChangedTo="0"/>
        <edge id="-E0" sampledSeconds="219.27" traveltime="53.63" overlapTraveltime="54.82" density="2.04" laneDensity="2.04" occupancy="1.01" waitingTime="158.00" timeLoss="171.35" speed="2.85" speedRelative="0.21" departed="0" arrived="0" entered="4" left="4" laneChangedFrom="0" laneChangedTo="0"/>
        <edge id="1068234498#0" sampledSeconds="0.00" departed="0" arrived="0" entered="0" left="0" laneChangedFrom="0" laneChangedTo="0"/>
        <edge id="1068234499#0" sampledSeconds="0.00" departed="0" arrived="0" entered="0" left="0" laneChangedFrom="0" laneChangedTo="0"/>
        <edge id="1068440001" sampledSeconds="0.00" departed="0" arrived="0" entered="0" left="0" laneChangedFrom="0" laneChangedTo="0"/>
        <edge id="1068440004#1" sampledSeconds="312.99" traveltime="37.62" overlapTraveltime="39.12" density="3.22" laneDensity="1.61" occupancy="0.79" waitingTime="190.00" timeLoss="231.15" speed="3.63" speedRelative="0.26" departed="0" arrived="0" entered="8" left="8" laneChangedFrom="2" laneChangedTo="2"/>
        <edge id="1068440006#0" sampledSeconds="0.00" departed="0" arrived="0" entered="0" left="0" laneChangedFrom="0" laneChangedTo="0"/>
        <edge id="1239087512" sampledSeconds="2.43" traveltime="0.02" overlapTraveltime="0.61" density="17.15" laneDensity="8.58" occupancy="0.17" waitingTime="0.00" timeLoss="0.96" speed="8.55" speedRelative="0.62" departed="0" arrived="0" entered="4" left="4" laneChangedFrom="0" laneChangedTo="0"/>
        <edge id="1239087513" sampledSeconds="0.00" departed="0" arrived="0" entered="0" left="0" laneChangedFrom="0" laneChangedTo="0"/>
        <edge id="1239087514" sampledSeconds="14.68" traveltime="3.30" overlapTraveltime="3.67" density="0.52" laneDensity="0.52" occupancy="0.23" waitingTime="0.00" timeLoss="2.02" speed="12.22" speedRelative="0.88" departed="0" arrived="0" entered="4" left="4" laneChangedFrom="0" laneChangedTo="0"/>
        <edge id="1334904386#0" sampledSeconds="0.00" departed="0" arrived="0" entered="0" left="0" laneChangedFrom="0" laneChangedTo="0"/>
        <edge id="1334905223#0" sampledSeconds="37.28" traveltime="5.03" overlapTraveltime="5.42" density="0.88" laneDensity="0.88" occupancy="0.41" waitingTime="0.00" timeLoss="5.05" speed="11.95" speedRelative="0.86" departed="0" arrived="7" entered="7" left="0" laneChangedFrom="0" laneChangedTo="0"/>
        <edge id="1334905224" sampledSeconds="13.53" traveltime="0.09" overlapTraveltime="3.38" density="95.42" laneDensity="95.42" occupancy="1.87" waitingTime="6.00" timeLoss="11.43" speed="1.54" speedRelative="0.11" departed="0" arrived="0" entered="4" left="4" laneChangedFrom="0" laneChangedTo="0"/>
        <edge id="1334905225" sampledSeconds="22.32" traveltime="2.80" overlapTraveltime="6.62" density="2.47" laneDensity="2.47" occupancy="0.79" waitingTime="6.00" timeLoss="17.36" speed="2.68" speedRelative="0.19" departed="3" arrived="0" entered="1" left="4" laneChangedFrom="0" laneChangedTo="0"/>
        <edge id="182334378#0" sampledSeconds="0.00" departed="0" arrived="0" entered="0" left="0" laneChangedFrom="0" laneChangedTo="0"/>
        <edge id="182334379#0" sampledSeconds="0.00" departed="0" arrived="0" entered="0" left="0" laneChangedFrom="0" laneChangedTo="0"/>
        <edge id="182336886" sampledSeconds="0.00" departed="0" arrived="0" entered="0" left="0" laneChangedFrom="0" laneChangedTo="0"/>
        <edge id="182336887#0" sampledSeconds="0.00" departed="0" arrived="0" entered="0" left="0" laneChangedFrom="0" laneChangedTo="0"/>
        <edge id="182336887#2" sampledSeconds="0.00" departed="0" arrived="0" entered="0" left="0" laneChangedFrom="0" laneChangedTo="0"/>
        <edge id="186602412#0" sampledSeconds="0.00" departed="0" arrived="0" entered="0" left="0" laneChangedFrom="0" laneChangedTo="0"/>
        <edge id="196961215#0" sampledSeconds="0.00" departed="0" arrived="0" entered="0" left="0" laneChangedFrom="0" laneChangedTo="0"/>
        <edge id="196961215#2" sampledSeconds="6.80" traveltime="4.34" overlapTraveltime="5.15" density="0.27" laneDensity="0.09" occupancy="0.04" waitingTime="0.00" timeLoss="2.72" speed="7.90" speedRelative="0.57" departed="2" arrived="0" entered="0" left="2" laneChangedFrom="0" laneChangedTo="0"/>
        <edge id="196961377#0" sampledSeconds="653.39" traveltime="42.71" overlapTraveltime="43.81" density="4.45" laneDensity="4.45" occupancy="2.18" waitingTime="309.00" timeLoss="427.43" speed="4.84" speedRelative="0.35" departed="15" arrived="0" entered="9" left="24" laneChangedFrom="0" laneChangedTo="0"/>
        <edge id="196961377#3" sampledSeconds="784.79" traveltime="32.22" overlapTraveltime="33.33" density="12.94" laneDensity="12.94" occupancy="6.33" waitingTime="505.00" timeLoss="631.32" speed="2.72" speedRelative="0.20" departed="0" arrived="0" entered="24" left="22" laneChangedFrom="0" laneChangedTo="0"/>
        <edge id="196961378#1" sampledSeconds="0.00" departed="0" arrived="0" entered="0" left="0" laneChangedFrom="0" laneChangedTo="0"/>
        <edge id="196961379#0" sampledSeconds="0.00" departed="0" arrived="0" entered="0" left="0" laneChangedFrom="0" laneChangedTo="0"/>
        <edge id="198001764#0" sampledSeconds="0.00" departed="0" arrived="0" entered="0" left="0" laneChangedFrom="0" laneChangedTo="0"/>
        <edge id="232003903#0" sampledSeconds="0.00" departed="0" arrived="0" entered="0" left="0" laneChangedFrom="0" laneChangedTo="0"/>
        <edge id="238526531#0" sampledSeconds="62.31" traveltime="44.66" overlapTraveltime="46.54" density="0.45" laneDensity="0.15" occupancy="0.07" waitingTime="15.00" timeLoss="29.10" speed="4.27" speedRelative="0.31" departed="3" arrived="0" entered="0" left="3" laneChangedFrom="0" laneChangedTo="0"/>
        <edge id="241518668#0" sampledSeconds="0.00" departed="0" arrived="0" entered="0" left="0" laneChangedFrom="0" laneChangedTo="0"/>
        <edge id="244450512#0" sampledSeconds="0.00" departed="0" arrived="0" entered="0" left="0" laneChangedFrom="0" laneChangedTo="0"/>
        <edge id="244450512#1" sampledSeconds="0.00" departed="0" arrived="0" entered="0" left="0" laneChangedFrom="0" laneChangedTo="0"/>
        <edge id="244450512#4" sampledSeconds="28.59" traveltime="16.33" overlapTraveltime="16.91" density="0.29" laneDensity="0.14" occupancy="0.07" waitingTime="0.00" timeLoss="1.73" speed="8.64" speedRelative="0.62" departed="4" arrived="0" entered="0" left="4" laneChangedFrom="0" laneChangedTo="0"/>
        <edge id="244450512#5" sampledSeconds="96.79" traveltime="22.82" overlapTraveltime="24.20" density="8.59" laneDensity="4.30" occupancy="2.07" waitingTime="73.00" timeLoss="87.69" speed="0.86" speedRelative="0.06" departed="0" arrived="0" entered="4" left="4" laneChangedFrom="0" laneChangedTo="0"/>
        <edge id="252657367" sampledSeconds="9.81" traveltime="0.04" overlapTraveltime="0.98" density="69.15" laneDensity="69.15" occupancy="1.33" waitingTime="0.00" timeLoss="3.90" speed="5.30" speedRelative="0.38" departed="0" arrived="0" entered="10" left="10" laneChangedFrom="0" laneChangedTo="0"/>
        <edge id="252657375" sampledSeconds="26.65" traveltime="3.72" overlapTraveltime="2.63" density="36.49" laneDensity="12.16" occupancy="0.25" waitingTime="22.00" timeLoss="22.20" speed="2.30" speedRelative="0.17" departed="13" arrived="11" entered="0" left="0" laneChangedFrom="0" laneChangedTo="0"/>
        <edge id="252657376" sampledSeconds="0.00" departed="0" arrived="0" entered="0" left="0" laneChangedFrom="0" laneChangedTo="0"/>
        <edge id="259080307#0" sampledSeconds="53.65" traveltime="12.68" overlapTraveltime="13.41" density="0.55" laneDensity="0.55" occupancy="0.26" waitingTime="0.00" timeLoss="11.87" speed="10.56" speedRelative="0.76" departed="0" arrived="0" entered="4" left="4" laneChangedFrom="0" laneChangedTo="0"/>
        <edge id="260881641" sampledSeconds="0.00" departed="0" arrived="0" entered="0" left="0" laneChangedFrom="0" laneChangedTo="0"/>
        <edge id="260881642#0" sampledSeconds="0.00" departed="0" arrived="0" entered="0" left="0" laneChangedFrom="0" laneChangedTo="0"/>
        <edge id="260882327" sampledSeconds="0.00" departed="0" arrived="0" entered="0" left="0" laneChangedFrom="0" laneChangedTo="0"/>
        <edge id="261898534" sampledSeconds="0.00" departed="0" arrived="0" entered="0" left="0" laneChangedFrom="0" laneChangedTo="0"/>
        <edge id="263217603#0" sampledSeconds="52.61" traveltime="8.06" overlapTraveltime="8.90" density="2.53" laneDensity="0.84" occupancy="0.39" waitingTime="24.00" timeLoss="36.18" speed="3.86" speedRelative="0.28" departed="0" arrived="4" entered="6" left="2" laneChangedFrom="0" laneChangedTo="0"/>
        <edge id="263217604#0" sampledSeconds="505.03" traveltime="35.49" overlapTraveltime="36.51" density="3.02" laneDensity="3.02" occupancy="1.48" waitingTime="204.00" timeLoss="265.50" speed="6.60" speedRelative="0.48" departed="1" arrived="0" entered="13" left="12" laneChangedFrom="0" laneChangedTo="0"/>
        <edge id="268564473#0" sampledSeconds="0.00" departed="0" arrived="0" entered="0" left="0" laneChangedFrom="0" laneChangedTo="0"/>
        <edge id="288135626#0" sampledSeconds="0.00" departed="0" arrived="0" entered="0" left="0" laneChangedFrom="0" laneChangedTo="0"/>
        <edge id="288135628#0" sampledSeconds="0.00" departed="0" arrived="0" entered="0" left="0" laneChangedFrom="0" laneChangedTo="0"/>
        <edge id="288878926#0" sampledSeconds="176.05" traveltime="16.39" overlapTraveltime="17.63" density="2.46" laneDensity="1.23" occupancy="0.59" waitingTime="39.00" timeLoss="90.91" speed="6.01" speedRelative="0.43" departed="14" arrived="2" entered="2" left="14" laneChangedFrom="1" laneChangedTo="1"/>
        <edge id="288878927" sampledSeconds="0.00" departed="0" arrived="0" entered="0" left="0" laneChangedFrom="0" laneChangedTo="0"/>
        <edge id="297213521#0" sampledSeconds="0.00" departed="0" arrived="0" entered="0" left="0" laneChangedFrom="0" laneChangedTo="0"/>
        <edge id="300077497#0" sampledSeconds="70.45" traveltime="22.90" overlapTraveltime="23.48" density="0.49" laneDensity="0.49" occupancy="0.24" waitingTime="0.00" timeLoss="5.23" speed="8.84" speedRelative="0.64" departed="0" arrived="0" entered="3" left="3" laneChangedFrom="0" laneChangedTo="0"/>
        <edge id="300077497#6" sampledSeconds="14.58" traveltime="4.44" overlapTraveltime="5.00" density="0.53" laneDensity="0.53" occupancy="0.24" waitingTime="0.00" timeLoss="1.20" speed="8.78" speedRelative="0.63" departed="0" arrived="2" entered="3" left="1" laneChangedFrom="0" laneChangedTo="0"/>
        <edge id="303647013" sampledSeconds="68.82" traveltime="7.10" overlapTraveltime="7.25" density="7.64" laneDensity="7.64" occupancy="3.32" waitingTime="40.00" timeLoss="54.87" speed="2.44" speedRelative="0.18" departed="12" arrived="0" entered="0" left="12" laneChangedFrom="0" laneChangedTo="0"/>
        <edge id="303647015#0" sampledSeconds="0.00" departed="0" arrived="0" entered="0" left="0" laneChangedFrom="0" laneChangedTo="0"/>
        <edge id="304148115" sampledSeconds="0.00" departed="0" arrived="0" entered="0" left="0" laneChangedFrom="0" laneChangedTo="0"/>
        <edge id="30620492#0" sampledSeconds="0.00" departed="0" arrived="0" entered="0" left="0" laneChangedFrom="0" laneChangedTo="0"/>
        <edge id="30620492#1" sampledSeconds="0.00" departed="0" arrived="0" entered="0" left="0" laneChangedFrom="0" laneChangedTo="0"/>
        <edge id="314800955" sampledSeconds="0.00" departed="0" arrived="0" entered="0" left="0" laneChangedFrom="0" laneChangedTo="0"/>
        <edge id="336063376#0" sampledSeconds="0.00" departed="0" arrived="0" entered="0" left="0" laneChangedFrom="0" laneChangedTo="0"/>
        <edge id="35274074#0" sampledSeconds="61.41" traveltime="19.52" overlapTraveltime="20.94" density="1.02" laneDensity="1.02" occupancy="0.48" waitingTime="18.00" timeLoss="28.84" speed="4.30" speedRelative="0.31" departed="0" arrived="0" entered="3" left="2" laneChangedFrom="0" laneChangedTo="0"/>
        <edge id="353392316#0" sampledSeconds="0.00" departed="0" arrived="0" entered="0" left="0" laneChangedFrom="0" laneChangedTo="0"/>
        <edge id="360018417" sampledSeconds="0.00" departed="0" arrived="0" entered="0" left="0" laneChangedFrom="0" laneChangedTo="0"/>
        <edge id="360843888" sampledSeconds="5.19" traveltime="4.78" overlapTraveltime="5.19" density="0.12" laneDensity="0.12" occupancy="0.06" waitingTime="0.00" timeLoss="0.28" speed="12.40" speedRelative="0.89" departed="0" arrived="1" entered="1" left="0" laneChangedFrom="0" laneChangedTo="0"/>
        <edge id="360843891" sampledSeconds="167.43" traveltime="31.54" overlapTraveltime="24.18" density="133.33" laneDensity="133.33" occupancy="7.82" waitingTime="158.00" timeLoss="164.82" speed="0.22" speedRelative="0.02" departed="7" arrived="0" entered="0" left="7" laneChangedFrom="0" laneChangedTo="0"/>
        <edge id="360851262#0" sampledSeconds="0.00" departed="0" arrived="0" entered="0" left="0" laneChangedFrom="0" laneChangedTo="0"/>
        <edge id="420578931#0" sampledSeconds="0.00" departed="0" arrived="0" entered="0" left="0" laneChangedFrom="0" laneChangedTo="0"/>
        <edge id="420578931#1" sampledSeconds="0.00" departed="0" arrived="0" entered="0" left="0" laneChangedFrom="0" laneChangedTo="0"/>
        <edge id="484988951#0" sampledSeconds="96.84" traveltime="10.92" overlapTraveltime="12.10" density="3.90" laneDensity="3.90" occupancy="1.84" waitingTime="48.00" timeLoss="74.14" speed="3.31" speedRelative="0.24" departed="0" arrived="0" entered="8" left="8" laneChangedFrom="0" laneChangedTo="0"/>
        <edge id="484988952#0" sampledSeconds="0.00" departed="0" arrived="0" entered="0" left="0" laneChangedFrom="0" laneChangedTo="0"/>
        <edge id="48794887#0" sampledSeconds="0.00" departed="0" arrived="0" entered="0" left="0" laneChangedFrom="0" laneChangedTo="0"/>
        <edge id="48794890" sampledSeconds="0.00" departed="0" arrived="0" entered="0" left="0" laneChangedFrom="0" laneChangedTo="0"/>
        <edge id="49073226#2" sampledSeconds="32.87" traveltime="4.13" overlapTraveltime="4.51" density="0.84" laneDensity="0.28" occupancy="0.13" waitingTime="0.00" timeLoss="1.73" speed="13.35" speedRelative="0.96" departed="0" arrived="7" entered="8" left="0" laneChangedFrom="0" laneChangedTo="0"/>
        <edge id="49073247#0" sampledSeconds="0.00" departed="0" arrived="0" entered="0" left="0" laneChangedFrom="0" laneChangedTo="0"/>
        <edge id="49073264#0" sampledSeconds="0.00" departed="0" arrived="0" entered="0" left="0" laneChangedFrom="0" laneChangedTo="0"/>
        <edge id="49073272#0" sampledSeconds="122.31" traveltime="6.35" overlapTraveltime="8.06" density="105.84" laneDensity="52.92" occupancy="4.03" waitingTime="79.00" timeLoss="114.89" speed="0.82" speedRelative="0.06" departed="0" arrived="3" entered="16" left="13" laneChangedFrom="0" laneChangedTo="0"/>
        <edge id="49073272#1" sampledSeconds="187.44" traveltime="5.96" overlapTraveltime="6.44" density="3.69" laneDensity="1.85" occupancy="0.85" waitingTime="0.00" timeLoss="24.86" speed="11.88" speedRelative="0.86" departed="35" arrived="0" entered="12" left="46" laneChangedFrom="1" laneChangedTo="1"/>
        <edge id="49073272#3" sampledSeconds="296.93" traveltime="5.55" overlapTraveltime="6.63" density="35.13" laneDensity="17.57" occupancy="7.44" waitingTime="118.00" timeLoss="241.88" speed="2.55" speedRelative="0.18" departed="0" arrived="11" entered="46" left="34" laneChangedFrom="5" laneChangedTo="5"/>
        <edge id="49073272#4" sampledSeconds="2030.36" traveltime="45.55" overlapTraveltime="46.28" density="14.69" laneDensity="7.35" occupancy="3.62" waitingTime="1117.00" timeLoss="1401.91" speed="4.32" speedRelative="0.31" departed="15" arrived="5" entered="34" left="43" laneChangedFrom="5" laneChangedTo="5"/>
        <edge id="49073274" sampledSeconds="17.92" traveltime="0.04" overlapTraveltime="1.00" density="126.35" laneDensity="126.35" occupancy="2.43" waitingTime="0.00" timeLoss="6.17" speed="5.22" speedRelative="0.38" departed="0" arrived="0" entered="18" left="18" laneChangedFrom="0" laneChangedTo="0"/>
        <edge id="49695726" sampledSeconds="0.00" departed="0" arrived="0" entered="0" left="0" laneChangedFrom="0" laneChangedTo="0"/>
        <edge id="49695733#0" sampledSeconds="0.00" departed="0" arrived="0" entered="0" left="0" laneChangedFrom="0" laneChangedTo="0"/>
        <edge id="49695733#2" sampledSeconds="0.00" departed="0" arrived="0" entered="0" left="0" laneChangedFrom="0" laneChangedTo="0"/>
        <edge id="49695736#0" sampledSeconds="72.50" traveltime="22.93" overlapTraveltime="24.17" density="1.16" laneDensity="0.39" occupancy="0.19" waitingTime="27.00" timeLoss="43.12" speed="3.84" speedRelative="0.28" departed="0" arrived="0" entered="3" left="3" laneChangedFrom="3" laneChangedTo="3"/>
        <edge id="506322840#0" sampledSeconds="11.19" traveltime="5.27" overlapTraveltime="5.72" density="0.30" laneDensity="0.10" occupancy="0.05" waitingTime="0.00" timeLoss="2.24" speed="10.06" speedRelative="0.72" departed="0" arrived="2" entered="2" left="0" laneChangedFrom="0" laneChangedTo="0"/>
        <edge id="506322841#1" sampledSeconds="0.00" departed="0" arrived="0" entered="0" left="0" laneChangedFrom="0" laneChangedTo="0"/>
        <edge id="506322841#3" sampledSeconds="0.00" departed="0" arrived="0" entered="0" left="0" laneChangedFrom="0" laneChangedTo="0"/>
        <edge id="506322841#4" sampledSeconds="0.00" departed="0" arrived="0" entered="0" left="0" laneChangedFrom="0" laneChangedTo="0"/>
        <edge id="506322842#0" sampledSeconds="7.75" traveltime="5.70" overlapTraveltime="6.09" density="0.16" laneDensity="0.05" occupancy="0.03" waitingTime="0.00" timeLoss="0.40" speed="12.24" speedRelative="0.88" departed="5" arrived="5" entered="0" left="0" laneChangedFrom="0" laneChangedTo="0"/>
        <edge id="506322844#0" sampledSeconds="2.00" traveltime="2.87" overlapTraveltime="3.19" density="0.06" laneDensity="0.06" occupancy="0.03" waitingTime="0.00" timeLoss="0.03" speed="15.76" speedRelative="1.13" departed="1" arrived="1" entered="0" left="0" laneChangedFrom="0" laneChangedTo="0"/>
        <edge id="506322846#0" sampledSeconds="35.98" traveltime="17.32" overlapTraveltime="17.99" density="0.39" laneDensity="0.10" occupancy="0.05" waitingTime="0.00" timeLoss="2.74" speed="7.49" speedRelative="0.54" departed="0" arrived="0" entered="2" left="2" laneChangedFrom="4" laneChangedTo="4"/>
        <edge id="506322846#2" sampledSeconds="14.45" traveltime="6.73" overlapTraveltime="7.38" density="0.41" laneDensity="0.10" occupancy="0.05" waitingTime="0.00" timeLoss="1.12" speed="7.48" speedRelative="0.54" departed="0" arrived="2" entered="2" left="0" laneChangedFrom="0" laneChangedTo="0"/>
        <edge id="506322847#0" sampledSeconds="0.00" departed="0" arrived="0" entered="0" left="0" laneChangedFrom="0" laneChangedTo="0"/>
        <edge id="506322848#0" sampledSeconds="0.00" departed="0" arrived="0" entered="0" left="0" laneChangedFrom="0" laneChangedTo="0"/>
        <edge id="506322851#0" sampledSeconds="7.46" traveltime="12.65" overlapTraveltime="13.01" density="0.06" laneDensity="0.02" occupancy="0.01" waitingTime="0.00" timeLoss="0.49" speed="13.60" speedRelative="0.98" departed="2" arrived="0" entered="0" left="2" laneChangedFrom="0" laneChangedTo="0"/>
        <edge id="506322851#2" sampledSeconds="9.26" traveltime="4.27" overlapTraveltime="4.63" density="0.22" laneDensity="0.07" occupancy="0.03" waitingTime="0.00" timeLoss="0.37" speed="13.86" speedRelative="1.00" departed="0" arrived="0" entered="2" left="2" laneChangedFrom="0" laneChangedTo="0"/>
        <edge id="506322853#0" sampledSeconds="99.37" traveltime="48.29" overlapTraveltime="49.69" density="1.03" laneDensity="0.34" occupancy="0.17" waitingTime="71.00" timeLoss="79.78" speed="2.85" speedRelative="0.21" departed="0" arrived="0" entered="2" left="2" laneChangedFrom="0" laneChangedTo="0"/>
        <edge id="506322856" sampledSeconds="23.37" traveltime="0.03" overlapTraveltime="0.58" density="164.81" laneDensity="41.20" occupancy="0.79" waitingTime="0.00" timeLoss="7.27" speed="8.95" speedRelative="0.64" departed="0" arrived="43" entered="52" left="9" laneChangedFrom="0" laneChangedTo="0"/>
        <edge id="506322857#0" sampledSeconds="0.00" departed="0" arrived="0" entered="0" left="0" laneChangedFrom="0" laneChangedTo="0"/>
        <edge id="506322858" sampledSeconds="18.88" traveltime="0.02" overlapTraveltime="0.42" density="133.18" laneDensity="66.59" occupancy="1.28" waitingTime="0.00" timeLoss="2.15" speed="12.39" speedRelative="0.89" departed="0" arrived="0" entered="45" left="45" laneChangedFrom="0" laneChangedTo="0"/>
        <edge id="51289045#1" sampledSeconds="0.00" departed="0" arrived="0" entered="0" left="0" laneChangedFrom="0" laneChangedTo="0"/>
        <edge id="51289045#3" sampledSeconds="0.00" departed="0" arrived="0" entered="0" left="0" laneChangedFrom="0" laneChangedTo="0"/>
        <edge id="51289045#4" sampledSeconds="0.00" departed="0" arrived="0" entered="0" left="0" laneChangedFrom="0" laneChangedTo="0"/>
        <edge id="51289045#5" sampledSeconds="0.00" departed="0" arrived="0" entered="0" left="0" laneChangedFrom="0" laneChangedTo="0"/>
        <edge id="51289045#7" sampledSeconds="0.00" departed="0" arrived="0" entered="0" left="0" laneChangedFrom="0" laneChangedTo="0"/>
        <edge id="51362359#0" sampledSeconds="0.00" departed="0" arrived="0" entered="0" left="0" laneChangedFrom="0" laneChangedTo="0"/>
        <edge id="51362368" sampledSeconds="0.00" departed="0" arrived="0" entered="0" left="0" laneChangedFrom="0" laneChangedTo="0"/>
        <edge id="51362429#0" sampledSeconds="0.00" departed="0" arrived="0" entered="0" left="0" laneChangedFrom="0" laneChangedTo="0"/>
        <edge id="51362430" sampledSeconds="91.33" traveltime="11.04" overlapTraveltime="11.42" density="0.90" laneDensity="0.90" occupancy="0.43" waitingTime="0.00" timeLoss="7.36" speed="12.97" speedRelative="0.93" departed="0" arrived="0" entered="8" left="8" laneChangedFrom="0" laneChangedTo="0"/>
        <edge id="51362431" sampledSeconds="0.00" departed="0" arrived="0" entered="0" left="0" laneChangedFrom="0" laneChangedTo="0"/>
        <edge id="51392846#0" sampledSeconds="14.48" traveltime="4.51" overlapTraveltime="5.74" density="0.43" laneDensity="0.43" occupancy="0.19" waitingTime="0.00" timeLoss="2.57" speed="9.09" speedRelative="0.65" departed="4" arrived="0" entered="0" left="4" laneChangedFrom="0" laneChangedTo="0"/>
        <edge id="51392936#0" sampledSeconds="0.00" departed="0" arrived="0" entered="0" left="0" laneChangedFrom="0" laneChangedTo="0"/>