<?xml version="1.0" encoding="UTF-8"?>

<!-- generated on 2025-11-12 01:11:44 by Eclipse SUMO GUI Version 1.24.0
<sumoConfiguration xmlns:xsi="http://www.w3.org/2001/XMLSchema-instance" xsi:noNamespaceSchemaLocation="http://sumo.dlr.de/xsd/sumoConfiguration.xsd">

    <input>
        <net-file value="C:\Users\10Pis\Downloads\Senior_Project\System-of-the-control-traffic-light\data\ntut-the%20way.net.xml"/>
        <route-files value="C:\Users\10Pis\Downloads\Senior_Project\System-of-the-control-traffic-light\data\2025-09-23-23-41-00/osm.pedestrian.rou.xml,C:\Users\10Pis\Downloads\Senior_Project\System-of-the-control-traffic-light\data\output.rou.xml"/>
        <additional-files value="C:\Users\10Pis\Downloads\Senior_Project\System-of-the-control-traffic-light\data\2025-09-23-23-41-00/output.add.xml"/>
    </input>

    <output>
        <tripinfo-output value="C:\Users\10Pis\Downloads\Senior_Project\System-of-the-control-traffic-light\data\2025-09-23-23-41-00/tripinfos.xml"/>
        <statistic-output value="C:\Users\10Pis\Downloads\Senior_Project\System-of-the-control-traffic-light\data\2025-09-23-23-41-00/stats.xml"/>
    </output>

    <processing>
        <ignore-route-errors value="true"/>
        <tls.actuated.jam-threshold value="30"/>
    </processing>

    <routing>
        <device.rerouting.adaptation-steps value="18"/>
        <device.rerouting.adaptation-interval value="10"/>
    </routing>

    <report>
        <verbose value="true"/>
        <duration-log.statistics value="true"/>
        <no-step-log value="true"/>
    </report>

    <gui_only>
        <gui-settings-file value="C:\Users\10Pis\Downloads\Senior_Project\System-of-the-control-traffic-light\data\2025-09-23-23-41-00/osm.view.xml"/>
    </gui_only>

</sumoConfiguration>
-->

<tripinfos xmlns:xsi="http://www.w3.org/2001/XMLSchema-instance" xsi:noNamespaceSchemaLocation="http://sumo.dlr.de/xsd/tripinfo_file.xsd">
    <tripinfo id="api_flow_z1030a0.0" depart="0.00" departLane="252657375_1" departPos="0.03" departSpeed="15.60" departDelay="0.00" arrival="1.00" arrivalLane="252657375_1" arrivalPos="1.03" arrivalSpeed="15.21" duration="1.00" routeLength="1.00" waitingTime="0.00" waitingCount="0" stopTime="0.00" timeLoss="0.03" rerouteNo="0" devices="tripinfo_api_flow_z1030a0.0" vType="api_vt_z1030a0" speedFactor="1.12" vaporized=""/>
    <tripinfo id="api_flow_zjqji20.0" depart="0.00" departLane="506322842#0_1" departPos="46.42" departSpeed="12.36" departDelay="0.00" arrival="2.00" arrivalLane="506322842#0_1" arrivalPos="69.48" arrivalSpeed="12.36" duration="2.00" routeLength="23.06" waitingTime="0.00" waitingCount="0" stopTime="0.00" timeLoss="0.09" rerouteNo="0" devices="tripinfo_api_flow_zjqji20.0" vType="api_vt_zjqji20" speedFactor="0.89" vaporized=""/>
    <tripinfo id="api_flow_zn0a0e0.0" depart="0.00" departLane="506322844#0_1" departPos="15.35" departSpeed="16.03" departDelay="0.00" arrival="2.00" arrivalLane="506322844#0_1" arrivalPos="45.28" arrivalSpeed="15.59" duration="2.00" routeLength="29.93" waitingTime="0.00" waitingCount="0" stopTime="0.00" timeLoss="0.03" rerouteNo="0" devices="tripinfo_api_flow_zn0a0e0.0" vType="api_vt_zn0a0e0" speedFactor="1.15" vaporized=""/>
    <tripinfo id="api_flow_zk7k820.0" depart="0.00" departLane="-593847703#3_1" departPos="77.76" departSpeed="13.18" departDelay="0.00" arrival="5.00" arrivalLane="-593847703#3_1" arrivalPos="134.05" arrivalSpeed="12.11" duration="5.00" routeLength="56.29" waitingTime="0.00" waitingCount="0" stopTime="0.00" timeLoss="0.30" rerouteNo="0" devices="tripinfo_api_flow_zk7k820.0" vType="api_vt_zk7k820" speedFactor="0.95" vaporized=""/>
    <tripinfo id="api_flow_zj7kv40.0" depart="1.00" departLane="910567294_3" departPos="7.30" departSpeed="5.02" departDelay="1.00" arrival="12.00" arrivalLane="506322856_2" arrivalPos="0.20" arrivalSpeed="12.85" duration="11.00" routeLength="62.39" waitingTime="0.00" waitingCount="0" stopTime="0.00" timeLoss="4.48" rerouteNo="0" devices="tripinfo_api_flow_zj7kv40.0" vType="api_vt_zj7kv40" speedFactor="1.02" vaporized=""/>
    <tripinfo id="api_flow_zk7kp40.0" depart="0.00" departLane="288878926#0_1" departPos="17.00" departSpeed="8.33" departDelay="0.00" arrival="12.00" arrivalLane="288878926#0_1" arrivalPos="100.94" arrivalSpeed="7.79" duration="12.00" routeLength="83.94" waitingTime="0.00" waitingCount="0" stopTime="0.00" timeLoss="1.01" rerouteNo="0" devices="tripinfo_api_flow_zk7kp40.0" vType="api_vt_zk7kp40" speedFactor="1.13" vaporized=""/>
    <tripinfo id="api_flow_zn2e0e0.0" depart="0.00" departLane="1334905225_1" departPos="2.64" departSpeed="8.21" departDelay="0.00" arrival="12.00" arrivalLane="263217603#0_3" arrivalPos="29.31" arrivalSpeed="13.65" duration="12.00" routeLength="56.08" waitingTime="2.00" waitingCount="1" stopTime="0.00" timeLoss="6.70" rerouteNo="0" devices="tripinfo_api_flow_zn2e0e0.0" vType="api_vt_zn2e0e0" speedFactor="0.99" vaporized=""/>
    <tripinfo id="api_flow_z12c2e0.0" depart="0.00" departLane="49073272#4_1" departPos="5.81" departSpeed="13.00" departDelay="0.00" arrival="16.00" arrivalLane="49073272#4_1" arrivalPos="194.88" arrivalSpeed="12.39" duration="16.00" routeLength="189.07" waitingTime="0.00" waitingCount="0" stopTime="0.00" timeLoss="0.95" rerouteNo="0" devices="tripinfo_api_flow_z12c2e0.0" vType="api_vt_z12c2e0" speedFactor="0.94" vaporized=""/>
    <personinfo id="ped0" depart="0.00" type="ped_pedestrian" speedFactor="1.06" duration="21.00" waitingTime="0.00" timeLoss="2.26" traveltime="21.00">
        <walk depart="0.00" departPos="0.00" arrival="21.00" arrivalPos="27.59" duration="21.00" routeLength="27.59" timeLoss="2.26" maxSpeed="1.47" waitingTime="0.00"/>
    </personinfo>
    <tripinfo id="api_flow_z1250e0.0" depart="0.00" departLane="288878926#0_0" departPos="16.06" departSpeed="12.20" departDelay="0.00" arrival="24.00" arrivalLane="49073272#3_0" arrivalPos="11.92" arrivalSpeed="10.90" duration="24.00" routeLength="214.80" waitingTime="1.00" waitingCount="1" stopTime="0.00" timeLoss="6.40" rerouteNo="0" devices="tripinfo_api_flow_z1250e0.0" vType="api_vt_z1250e0" speedFactor="0.88" vaporized=""/>
    <tripinfo id="api_flow_zjtj820.0" depart="0.00" departLane="-1334905223#2_1" departPos="18.41" departSpeed="12.12" departDelay="0.00" arrival="29.00" arrivalLane="506322840#0_1" arrivalPos="52.51" arrivalSpeed="11.13" duration="29.00" routeLength="143.28" waitingTime="8.00" waitingCount="1" stopTime="0.00" timeLoss="15.05" rerouteNo="0" devices="tripinfo_api_flow_zjtj820.0" vType="api_vt_zjtj820" speedFactor="0.87" vaporized=""/>
    <tripinfo id="api_flow_z7230e0.0" depart="0.00" departLane="196961215#2_2" departPos="24.44" departSpeed="7.87" departDelay="0.00" arrival="30.00" arrivalLane="49073272#0_2" arrivalPos="1.63" arrivalSpeed="8.83" duration="30.00" routeLength="160.18" waitingTime="9.00" waitingCount="1" stopTime="0.00" timeLoss="19.55" rerouteNo="0" devices="tripinfo_api_flow_z7230e0.0" vType="api_vt_z7230e0" speedFactor="1.16" vaporized=""/>
    <tripinfo id="api_flow_zjhkr20.0" depart="0.00" departLane="506322851#0_3" departPos="139.52" departSpeed="14.03" departDelay="0.00" arrival="49.00" arrivalLane="910567293_0" arrivalPos="0.20" arrivalSpeed="4.99" duration="49.00" routeLength="302.15" waitingTime="19.00" waitingCount="1" stopTime="0.00" timeLoss="26.90" rerouteNo="0" devices="tripinfo_api_flow_zjhkr20.0" vType="api_vt_zjhkr20" speedFactor="1.01" vaporized=""/>
    <tripinfo id="api_flow_zn0b0e0.0" depart="0.00" departLane="263217604#0_0" departPos="20.30" departSpeed="13.11" departDelay="0.00" arrival="50.00" arrivalLane="360843888_1" arrivalPos="59.36" arrivalSpeed="12.12" duration="50.00" routeLength="309.41" waitingTime="20.00" waitingCount="1" stopTime="0.00" timeLoss="25.72" rerouteNo="0" devices="tripinfo_api_flow_zn0b0e0.0" vType="api_vt_zn0b0e0" speedFactor="1.01" vaporized=""/>
    <tripinfo id="api_flow_z03b0g0.0" depart="0.00" departLane="196961377#0_0" departPos="181.43" departSpeed="11.90" departDelay="0.00" arrival="51.00" arrivalLane="593852346_2" arrivalPos="44.63" arrivalSpeed="8.67" duration="51.00" routeLength="201.12" waitingTime="18.00" waitingCount="2" stopTime="0.00" timeLoss="31.92" rerouteNo="0" devices="tripinfo_api_flow_z03b0g0.0" vType="api_vt_z03b0g0" speedFactor="0.86" vaporized=""/>
    <tripinfo id="api_flow_z1260e0.0" depart="0.00" departLane="49073272#4_2" departPos="186.42" departSpeed="5.98" departDelay="0.00" arrival="61.00" arrivalLane="506322856_1" arrivalPos="0.20" arrivalSpeed="13.03" duration="61.00" routeLength="82.25" waitingTime="48.00" waitingCount="1" stopTime="0.00" timeLoss="54.69" rerouteNo="0" devices="tripinfo_api_flow_z1260e0.0" vType="api_vt_z1260e0" speedFactor="0.94" vaporized=""/>
    <tripinfo id="api_flow_z0150c0.0" depart="0.00" departLane="49073272#1_1" departPos="32.36" departSpeed="14.53" departDelay="0.00" arrival="63.00" arrivalLane="506322856_1" arrivalPos="0.20" arrivalSpeed="13.60" duration="63.00" routeLength="344.59" waitingTime="24.00" waitingCount="2" stopTime="0.00" timeLoss="38.97" rerouteNo="0" devices="tripinfo_api_flow_z0150c0.0" vType="api_vt_z0150c0" speedFactor="1.05" vaporized=""/>
    <tripinfo id="api_flow_z1240e0.0" depart="0.00" departLane="51392846#0_0" departPos="36.08" departSpeed="12.87" departDelay="0.00" arrival="63.00" arrivalLane="49073226#2_2" arrivalPos="55.18" arrivalSpeed="11.86" duration="63.00" routeLength="449.95" waitingTime="13.00" waitingCount="1" stopTime="0.00" timeLoss="26.21" rerouteNo="0" devices="tripinfo_api_flow_z1240e0.0" vType="api_vt_z1240e0" speedFactor="0.93" vaporized=""/>
    <tripinfo id="api_flow_z0150c2.0" depart="0.00" departLane="49073272#1_1" departPos="4.31" departSpeed="10.37" departDelay="0.00" arrival="65.00" arrivalLane="506322856_1" arrivalPos="0.20" arrivalSpeed="12.47" duration="65.00" routeLength="372.64" waitingTime="20.00" waitingCount="2" stopTime="0.00" timeLoss="36.23" rerouteNo="0" devices="tripinfo_api_flow_z0150c2.0" vType="api_vt_z0150c2" speedFactor="0.94" vaporized=""/>
    <tripinfo id="api_flow_z1030a0.1" depart="65.00" departLane="252657375_1" departPos="0.52" departSpeed="15.31" departDelay="0.71" arrival="66.00" arrivalLane="252657375_1" arrivalPos="1.03" arrivalSpeed="15.23" duration="1.00" routeLength="0.51" waitingTime="0.00" waitingCount="0" stopTime="0.00" timeLoss="0.01" rerouteNo="0" devices="tripinfo_api_flow_z1030a0.1" vType="api_vt_z1030a0" speedFactor="1.10" vaporized=""/>
    <tripinfo id="api_flow_z0150c1.0" depart="0.00" departLane="49073272#1_1" departPos="18.93" departSpeed="12.00" departDelay="0.00" arrival="68.00" arrivalLane="506322856_1" arrivalPos="0.20" arrivalSpeed="11.02" duration="68.00" routeLength="358.02" waitingTime="20.00" waitingCount="2" stopTime="0.00" timeLoss="38.12" rerouteNo="0" devices="tripinfo_api_flow_z0150c1.0" vType="api_vt_z0150c1" speedFactor="0.89" vaporized=""/>
    <tripinfo id="api_flow_z0140c0.0" depart="0.00" departLane="303647013_1" departPos="0.58" departSpeed="14.31" departDelay="0.00" arrival="82.00" arrivalLane="593847702#0_1" arrivalPos="164.54" arrivalSpeed="13.32" duration="82.00" routeLength="589.34" waitingTime="27.00" waitingCount="2" stopTime="0.00" timeLoss="40.64" rerouteNo="0" devices="tripinfo_api_flow_z0140c0.0" vType="api_vt_z0140c0" speedFactor="1.03" vaporized=""/>
    <tripinfo id="api_flow_zk9kc60.0" depart="2.00" departLane="593849715_1" departPos="0.16" departSpeed="0.04" departDelay="2.00" arrival="83.00" arrivalLane="-593847701_1" arrivalPos="0.20" arrivalSpeed="3.85" duration="81.00" routeLength="168.95" waitingTime="59.00" waitingCount="2" stopTime="0.00" timeLoss="66.56" rerouteNo="0" devices="tripinfo_api_flow_zk9kc60.0" vType="api_vt_zk9kc60" speedFactor="0.93" vaporized=""/>
    <tripinfo id="api_flow_z03d0g0.0" depart="0.00" departLane="360843891_1" departPos="0.14" departSpeed="0.06" departDelay="0.00" arrival="85.00" arrivalLane="1334905223#0_1" arrivalPos="59.80" arrivalSpeed="13.96" duration="85.00" routeLength="352.42" waitingTime="55.00" waitingCount="1" stopTime="0.00" timeLoss="59.76" rerouteNo="0" devices="tripinfo_api_flow_z03d0g0.0" vType="api_vt_z03d0g0" speedFactor="1.03" vaporized=""/>
    <tripinfo id="api_flow_z0140c1.0" depart="1.00" departLane="303647013_1" departPos="0.60" departSpeed="11.31" departDelay="1.00" arrival="86.00" arrivalLane="593847702#0_1" arrivalPos="164.54" arrivalSpeed="10.28" duration="85.00" routeLength="591.12" waitingTime="19.00" waitingCount="2" stopTime="0.00" timeLoss="33.27" rerouteNo="0" devices="tripinfo_api_flow_z0140c1.0" vType="api_vt_z0140c1" speedFactor="0.83" vaporized=""/>
    <tripinfo id="api_flow_z03d0g1.0" depart="58.00" departLane="360843891_1" departPos="0.09" departSpeed="3.98" departDelay="58.00" arrival="87.00" arrivalLane="1334905223#0_1" arrivalPos="59.80" arrivalSpeed="13.87" duration="29.00" routeLength="352.47" waitingTime="0.00" waitingCount="0" stopTime="0.00" timeLoss="4.07" rerouteNo="0" devices="tripinfo_api_flow_z03d0g1.0" vType="api_vt_z03d0g1" speedFactor="1.05" vaporized=""/>
    <tripinfo id="api_flow_zjwj740.0" depart="0.00" departLane="238526531#0_1" departPos="95.31" departSpeed="8.11" departDelay="0.00" arrival="95.00" arrivalLane="506322846#2_2" arrivalPos="50.25" arrivalSpeed="8.10" duration="95.00" routeLength="500.92" waitingTime="21.00" waitingCount="2" stopTime="0.00" timeLoss="31.79" rerouteNo="0" devices="tripinfo_api_flow_zjwj740.0" vType="api_vt_zjwj740" speedFactor="0.92" vaporized=""/>
    <tripinfo id="api_flow_z1250e0.1" depart="64.00" departLane="288878926#0_0" departPos="12.28" departSpeed="13.52" departDelay="0.84" arrival="107.00" arrivalLane="49073272#3_0" arrivalPos="11.92" arrivalSpeed="12.41" duration="43.00" routeLength="218.58" waitingTime="15.00" waitingCount="2" stopTime="0.00" timeLoss="26.07" rerouteNo="0" devices="tripinfo_api_flow_z1250e0.1" vType="api_vt_z1250e0" speedFactor="0.97" vaporized=""/>
    <tripinfo id="api_flow_z1040a0.0" depart="0.00" departLane="910567294_3" departPos="6.04" departSpeed="13.77" departDelay="0.00" arrival="123.00" arrivalLane="593852345#0_0" arrivalPos="121.52" arrivalSpeed="13.46" duration="123.00" routeLength="561.53" waitingTime="64.00" waitingCount="2" stopTime="0.00" timeLoss="79.80" rerouteNo="0" devices="tripinfo_api_flow_z1040a0.0" vType="api_vt_z1040a0" speedFactor="0.99" vaporized=""/>
    <tripinfo id="api_flow_z03b0g0.1" depart="66.00" departLane="196961377#0_0" departPos="108.78" departSpeed="12.51" departDelay="0.55" arrival="123.00" arrivalLane="593852346_2" arrivalPos="44.63" arrivalSpeed="9.38" duration="57.00" routeLength="273.77" waitingTime="20.00" waitingCount="2" stopTime="0.00" timeLoss="33.03" rerouteNo="0" devices="tripinfo_api_flow_z03b0g0.1" vType="api_vt_z03b0g0" speedFactor="0.90" vaporized=""/>
    <tripinfo id="api_flow_z1030a0.2" depart="129.00" departLane="252657375_1" departPos="0.64" departSpeed="16.24" departDelay="0.43" arrival="130.00" arrivalLane="252657375_1" arrivalPos="1.03" arrivalSpeed="15.98" duration="1.00" routeLength="0.39" waitingTime="0.00" waitingCount="0" stopTime="0.00" timeLoss="0.02" rerouteNo="0" devices="tripinfo_api_flow_z1030a0.2" vType="api_vt_z1030a0" speedFactor="1.17" vaporized=""/>
    <tripinfo id="api_flow_z0130a0.0" depart="0.00" departLane="-1334905223#2_1" departPos="53.28" departSpeed="14.03" departDelay="0.00" arrival="132.00" arrivalLane="594658759_1" arrivalPos="1.51" arrivalSpeed="6.23" duration="132.00" routeLength="336.94" waitingTime="95.00" waitingCount="2" stopTime="0.00" timeLoss="106.80" rerouteNo="0" devices="tripinfo_api_flow_z0130a0.0" vType="api_vt_z0130a0" speedFactor="1.01" vaporized=""/>
    <tripinfo id="api_flow_zjhkr40.0" depart="0.00" departLane="196961215#2_2" departPos="3.18" departSpeed="10.21" departDelay="0.00" arrival="132.00" arrivalLane="910567293_0" arrivalPos="0.20" arrivalSpeed="4.65" duration="132.00" routeLength="568.95" waitingTime="57.00" waitingCount="5" stopTime="0.00" timeLoss="88.81" rerouteNo="0" devices="tripinfo_api_flow_zjhkr40.0" vType="api_vt_zjhkr40" speedFactor="0.97" vaporized=""/>
    <tripinfo id="api_flow_z1260e0.1" depart="74.00" departLane="49073272#4_2" departPos="51.23" departSpeed="13.29" departDelay="0.53" arrival="133.00" arrivalLane="506322856_1" arrivalPos="0.20" arrivalSpeed="12.79" duration="59.00" routeLength="217.44" waitingTime="35.00" waitingCount="1" stopTime="0.00" timeLoss="42.15" rerouteNo="0" devices="tripinfo_api_flow_z1260e0.1" vType="api_vt_z1260e0" speedFactor="0.96" vaporized=""/>
    <tripinfo id="api_flow_z0130a1.0" depart="0.00" departLane="-1334905223#2_1" departPos="42.61" departSpeed="10.59" departDelay="0.00" arrival="135.00" arrivalLane="594658759_1" arrivalPos="1.51" arrivalSpeed="8.40" duration="135.00" routeLength="347.61" waitingTime="94.00" waitingCount="2" stopTime="0.00" timeLoss="109.90" rerouteNo="0" devices="tripinfo_api_flow_z0130a1.0" vType="api_vt_z0130a1" speedFactor="1.08" vaporized=""/>
    <tripinfo id="api_flow_zkjjp20.0" depart="0.00" departLane="196961377#0_0" departPos="65.04" departSpeed="16.37" departDelay="0.00" arrival="135.00" arrivalLane="E0_0" arrivalPos="151.49" arrivalSpeed="5.25" duration="135.00" routeLength="657.12" waitingTime="59.00" waitingCount="4" stopTime="0.00" timeLoss="94.51" rerouteNo="0" devices="tripinfo_api_flow_zkjjp20.0" vType="api_vt_zkjjp20" speedFactor="1.18" vaporized=""/>
    <tripinfo id="api_flow_z0150c0.1" depart="64.00" departLane="49073272#1_1" departPos="36.52" departSpeed="14.16" departDelay="0.84" arrival="135.00" arrivalLane="506322856_1" arrivalPos="0.20" arrivalSpeed="12.95" duration="71.00" routeLength="340.43" waitingTime="34.00" waitingCount="2" stopTime="0.00" timeLoss="46.21" rerouteNo="0" devices="tripinfo_api_flow_z0150c0.1" vType="api_vt_z0150c0" speedFactor="1.02" vaporized=""/>
    <tripinfo id="api_flow_z1240e0.1" depart="95.00" departLane="51392846#0_0" departPos="18.52" departSpeed="14.42" departDelay="0.26" arrival="135.00" arrivalLane="49073226#2_2" arrivalPos="55.18" arrivalSpeed="13.15" duration="40.00" routeLength="467.51" waitingTime="0.00" waitingCount="0" stopTime="0.00" timeLoss="5.23" rerouteNo="0" devices="tripinfo_api_flow_z1240e0.1" vType="api_vt_z1240e0" speedFactor="1.04" vaporized=""/>
    <tripinfo id="api_flow_z0150c2.1" depart="65.00" departLane="49073272#1_1" departPos="39.46" departSpeed="10.23" departDelay="0.71" arrival="136.00" arrivalLane="506322856_1" arrivalPos="0.20" arrivalSpeed="15.53" duration="71.00" routeLength="337.49" waitingTime="31.00" waitingCount="2" stopTime="0.00" timeLoss="50.17" rerouteNo="0" devices="tripinfo_api_flow_z0150c2.1" vType="api_vt_z0150c2" speedFactor="1.18" vaporized=""/>
    <tripinfo id="api_flow_z0150c1.1" depart="68.00" departLane="49073272#1_1" departPos="16.41" departSpeed="14.31" departDelay="0.08" arrival="138.00" arrivalLane="506322856_1" arrivalPos="0.20" arrivalSpeed="14.16" duration="70.00" routeLength="360.54" waitingTime="27.00" waitingCount="1" stopTime="0.00" timeLoss="44.65" rerouteNo="0" devices="tripinfo_api_flow_z0150c1.1" vType="api_vt_z0150c1" speedFactor="1.03" vaporized=""/>
    <tripinfo id="api_flow_zjqji20.1" depart="150.00" departLane="506322842#0_1" departPos="57.75" departSpeed="12.49" departDelay="0.00" arrival="151.00" arrivalLane="506322842#0_1" arrivalPos="69.48" arrivalSpeed="11.85" duration="1.00" routeLength="11.73" waitingTime="0.00" waitingCount="0" stopTime="0.00" timeLoss="0.05" rerouteNo="0" devices="tripinfo_api_flow_zjqji20.1" vType="api_vt_zjqji20" speedFactor="0.90" vaporized=""/>
    <tripinfo id="api_flow_zjsjd40.0" depart="0.00" departLane="244450512#4_0" departPos="100.97" departSpeed="11.47" departDelay="0.00" arrival="157.00" arrivalLane="263217603#0_3" arrivalPos="29.31" arrivalSpeed="10.51" duration="157.00" routeLength="574.10" waitingTime="86.00" waitingCount="3" stopTime="0.00" timeLoss="104.67" rerouteNo="0" devices="tripinfo_api_flow_zjsjd40.0" vType="api_vt_zjsjd40" speedFactor="0.83" vaporized=""/>
    <tripinfo id="api_flow_zn2d0e0.0" depart="0.00" departLane="244450512#4_0" departPos="80.02" departSpeed="8.81" departDelay="0.00" arrival="158.00" arrivalLane="300077497#6_1" arrivalPos="38.93" arrivalSpeed="7.89" duration="158.00" routeLength="517.05" waitingTime="79.00" waitingCount="3" stopTime="0.00" timeLoss="98.78" rerouteNo="0" devices="tripinfo_api_flow_zn2d0e0.0" vType="api_vt_zn2d0e0" speedFactor="1.17" vaporized=""/>
    <tripinfo id="api_flow_z1250e0.2" depart="127.00" departLane="288878926#0_0" departPos="48.35" departSpeed="11.81" departDelay="0.69" arrival="160.00" arrivalLane="49073272#3_0" arrivalPos="11.92" arrivalSpeed="10.67" duration="33.00" routeLength="182.51" waitingTime="7.00" waitingCount="1" stopTime="0.00" timeLoss="16.85" rerouteNo="0" devices="tripinfo_api_flow_z1250e0.2" vType="api_vt_z1250e0" speedFactor="0.85" vaporized=""/>
    <tripinfo id="api_flow_zk9kc60.1" depart="150.00" departLane="593849711#0_1" departPos="2.03" departSpeed="12.69" departDelay="0.00" arrival="162.00" arrivalLane="593849711#2_1" arrivalPos="109.31" arrivalSpeed="11.62" duration="12.00" routeLength="139.02" waitingTime="0.00" waitingCount="0" stopTime="0.00" timeLoss="0.57" rerouteNo="0" devices="tripinfo_api_flow_zk9kc60.1" vType="api_vt_zk9kc60" speedFactor="1.14" vaporized=""/>
    <tripinfo id="api_flow_z12c2e0.1" depart="157.00" departLane="49073272#4_1" departPos="91.93" departSpeed="14.22" departDelay="0.48" arrival="165.00" arrivalLane="49073272#4_1" arrivalPos="194.88" arrivalSpeed="13.43" duration="8.00" routeLength="102.95" waitingTime="0.00" waitingCount="0" stopTime="0.00" timeLoss="0.49" rerouteNo="0" devices="tripinfo_api_flow_z12c2e0.1" vType="api_vt_z12c2e0" speedFactor="1.02" vaporized=""/>
    <tripinfo id="api_flow_z03c0g0.0" depart="0.00" departLane="593849715_1" departPos="0.06" departSpeed="0.13" departDelay="0.00" arrival="177.00" arrivalLane="594658758_1" arrivalPos="0.20" arrivalSpeed="5.49" duration="177.00" routeLength="580.14" waitingTime="117.00" waitingCount="3" stopTime="0.00" timeLoss="137.95" rerouteNo="0" devices="tripinfo_api_flow_z03c0g0.0" vType="api_vt_z03c0g0" speedFactor="1.09" vaporized=""/>
    <tripinfo id="api_flow_z03d0g1.1" depart="120.00" departLane="360843891_1" departPos="0.01" departSpeed="0.19" departDelay="0.00" arrival="188.00" arrivalLane="1334905223#0_1" arrivalPos="59.80" arrivalSpeed="11.42" duration="68.00" routeLength="352.55" waitingTime="29.00" waitingCount="2" stopTime="0.00" timeLoss="38.76" rerouteNo="0" devices="tripinfo_api_flow_z03d0g1.1" vType="api_vt_z03d0g1" speedFactor="0.90" vaporized=""/>
    <tripinfo id="api_flow_z03b0g0.2" depart="131.00" departLane="196961377#0_0" departPos="74.26" departSpeed="14.12" departDelay="0.09" arrival="194.00" arrivalLane="593852346_2" arrivalPos="44.63" arrivalSpeed="10.37" duration="63.00" routeLength="308.29" waitingTime="23.00" waitingCount="2" stopTime="0.00" timeLoss="39.42" rerouteNo="0" devices="tripinfo_api_flow_z03b0g0.2" vType="api_vt_z03b0g0" speedFactor="1.02" vaporized=""/>
    <tripinfo id="api_flow_z1030a0.3" depart="193.00" departLane="252657375_1" departPos="0.46" departSpeed="12.26" departDelay="0.14" arrival="194.00" arrivalLane="252657375_1" arrivalPos="1.03" arrivalSpeed="11.94" duration="1.00" routeLength="0.57" waitingTime="0.00" waitingCount="0" stopTime="0.00" timeLoss="0.03" rerouteNo="0" devices="tripinfo_api_flow_z1030a0.3" vType="api_vt_z1030a0" speedFactor="0.88" vaporized=""/>
    <tripinfo id="api_flow_z1040a0.1" depart="82.00" departLane="910567294_3" departPos="11.21" departSpeed="6.64" departDelay="0.18" arrival="195.00" arrivalLane="593852345#0_0" arrivalPos="121.52" arrivalSpeed="14.39" duration="113.00" routeLength="556.36" waitingTime="61.00" waitingCount="2" stopTime="0.00" timeLoss="73.76" rerouteNo="0" devices="tripinfo_api_flow_z1040a0.1" vType="api_vt_z1040a0" speedFactor="1.09" vaporized=""/>
    <tripinfo id="api_flow_z1260e0.2" depart="147.00" departLane="49073272#4_2" departPos="87.39" departSpeed="13.83" departDelay="0.06" arrival="204.00" arrivalLane="506322856_1" arrivalPos="0.20" arrivalSpeed="13.67" duration="57.00" routeLength="181.28" waitingTime="38.00" waitingCount="1" stopTime="0.00" timeLoss="43.39" rerouteNo="0" devices="tripinfo_api_flow_z1260e0.2" vType="api_vt_z1260e0" speedFactor="1.00" vaporized=""/>
    <tripinfo id="api_flow_z0150c0.2" depart="127.00" departLane="49073272#1_1" departPos="55.53" departSpeed="12.18" departDelay="0.69" arrival="207.00" arrivalLane="506322856_1" arrivalPos="0.20" arrivalSpeed="11.75" duration="80.00" routeLength="321.42" waitingTime="41.00" waitingCount="2" stopTime="0.00" timeLoss="52.81" rerouteNo="0" devices="tripinfo_api_flow_z0150c0.2" vType="api_vt_z0150c0" speedFactor="0.88" vaporized=""/>
    <tripinfo id="api_flow_z0150c2.2" depart="129.00" departLane="49073272#1_1" departPos="44.08" departSpeed="11.87" departDelay="0.43" arrival="209.00" arrivalLane="506322856_1" arrivalPos="0.20" arrivalSpeed="10.64" duration="80.00" routeLength="332.87" waitingTime="38.00" waitingCount="2" stopTime="0.00" timeLoss="51.21" rerouteNo="0" devices="tripinfo_api_flow_z0150c2.2" vType="api_vt_z0150c2" speedFactor="0.85" vaporized=""/>
    <tripinfo id="api_flow_z0150c1.2" depart="136.00" departLane="49073272#1_1" departPos="59.73" departSpeed="10.82" departDelay="0.15" arrival="210.00" arrivalLane="506322856_1" arrivalPos="0.20" arrivalSpeed="12.66" duration="74.00" routeLength="317.22" waitingTime="33.00" waitingCount="1" stopTime="0.00" timeLoss="51.12" rerouteNo="0" devices="tripinfo_api_flow_z0150c1.2" vType="api_vt_z0150c1" speedFactor="1.00" vaporized=""/>
    <tripinfo id="api_flow_z1250e0.3" depart="190.00" departLane="288878926#0_0" departPos="48.09" departSpeed="14.11" departDelay="0.53" arrival="211.00" arrivalLane="49073272#3_0" arrivalPos="11.92" arrivalSpeed="13.67" duration="21.00" routeLength="182.77" waitingTime="2.00" waitingCount="1" stopTime="0.00" timeLoss="7.50" rerouteNo="0" devices="tripinfo_api_flow_z1250e0.3" vType="api_vt_z1250e0" speedFactor="1.02" vaporized=""/>
    <tripinfo id="api_flow_z0130a0.1" depart="110.00" departLane="-1334905223#2_1" departPos="29.60" departSpeed="14.30" departDelay="0.91" arrival="222.00" arrivalLane="594658759_1" arrivalPos="1.51" arrivalSpeed="5.55" duration="112.00" routeLength="360.62" waitingTime="69.00" waitingCount="3" stopTime="0.00" timeLoss="86.05" rerouteNo="0" devices="tripinfo_api_flow_z0130a0.1" vType="api_vt_z0130a0" speedFactor="1.04" vaporized=""/>
    <tripinfo id="api_flow_z0130a1.1" depart="134.00" departLane="-1334905223#2_1" departPos="10.27" departSpeed="15.22" departDelay="0.67" arrival="225.00" arrivalLane="594658759_1" arrivalPos="1.51" arrivalSpeed="6.04" duration="91.00" routeLength="379.95" waitingTime="48.00" waitingCount="2" stopTime="0.00" timeLoss="64.06" rerouteNo="0" devices="tripinfo_api_flow_z0130a1.1" vType="api_vt_z0130a1" speedFactor="1.10" vaporized=""/>
    <tripinfo id="api_flow_z0140c0.1" depart="120.00" departLane="303647013_1" departPos="9.58" departSpeed="15.11" departDelay="0.00" arrival="238.00" arrivalLane="593847702#0_1" arrivalPos="164.54" arrivalSpeed="14.39" duration="118.00" routeLength="580.34" waitingTime="64.00" waitingCount="2" stopTime="0.00" timeLoss="78.73" rerouteNo="0" devices="tripinfo_api_flow_z0140c0.1" vType="api_vt_z0140c0" speedFactor="1.09" vaporized=""/>
    <tripinfo id="api_flow_zkjjp20.1" depart="172.00" departLane="196961377#0_0" departPos="174.29" departSpeed="14.98" departDelay="0.57" arrival="249.00" arrivalLane="E0_0" arrivalPos="151.49" arrivalSpeed="13.80" duration="77.00" routeLength="547.87" waitingTime="24.00" waitingCount="2" stopTime="0.00" timeLoss="39.83" rerouteNo="0" devices="tripinfo_api_flow_zkjjp20.1" vType="api_vt_zkjjp20" speedFactor="1.08" vaporized=""/>
    <tripinfo id="api_flow_z1030a0.4" depart="258.00" departLane="252657375_1" departPos="0.82" departSpeed="13.64" departDelay="0.86" arrival="259.00" arrivalLane="252657375_1" arrivalPos="1.03" arrivalSpeed="13.37" duration="1.00" routeLength="0.21" waitingTime="0.00" waitingCount="0" stopTime="0.00" timeLoss="0.02" rerouteNo="0" devices="tripinfo_api_flow_z1030a0.4" vType="api_vt_z1030a0" speedFactor="0.98" vaporized=""/>
    <tripinfo id="api_flow_z0140c1.1" depart="120.00" departLane="303647013_1" departPos="2.01" departSpeed="10.64" departDelay="0.00" arrival="267.00" arrivalLane="593847702#0_2" arrivalPos="164.54" arrivalSpeed="13.80" duration="147.00" routeLength="592.68" waitingTime="84.00" waitingCount="2" stopTime="0.00" timeLoss="101.95" rerouteNo="0" devices="tripinfo_api_flow_z0140c1.1" vType="api_vt_z0140c1" speedFactor="1.00" vaporized=""/>
    <tripinfo id="api_flow_z03b0g0.3" depart="197.00" departLane="196961377#0_0" departPos="160.50" departSpeed="12.60" departDelay="0.64" arrival="267.00" arrivalLane="593852346_2" arrivalPos="44.63" arrivalSpeed="9.55" duration="70.00" routeLength="222.05" waitingTime="37.00" waitingCount="2" stopTime="0.00" timeLoss="49.93" rerouteNo="0" devices="tripinfo_api_flow_z03b0g0.3" vType="api_vt_z03b0g0" speedFactor="0.91" vaporized=""/>
    <tripinfo id="api_flow_z1040a0.2" depart="164.00" departLane="910567294_3" departPos="7.77" departSpeed="8.36" departDelay="0.36" arrival="268.00" arrivalLane="593852345#0_0" arrivalPos="121.52" arrivalSpeed="13.20" duration="104.00" routeLength="559.80" waitingTime="42.00" waitingCount="3" stopTime="0.00" timeLoss="59.74" rerouteNo="0" devices="tripinfo_api_flow_z1040a0.2" vType="api_vt_z1040a0" speedFactor="0.97" vaporized=""/>