<?xml version="1.0" encoding="UTF-8"?>

<!-- generated on 2025-09-24 23:58:01 by Eclipse SUMO netedit Version 1.24.0
<neteditConfiguration xmlns:xsi="http://www.w3.org/2001/XMLSchema-instance" xsi:noNamespaceSchemaLocation="http://sumo.dlr.de/xsd/neteditConfiguration.xsd">

    <input>
        <sumocfg-file value="C:\Sumo\ntut\ntut-the way.sumocfg"/>
        <additional-files value="C:\Sumo\ntut\../../Users/User/2025-09-23-23-41-00/osm.poly.xml.gz"/>
        <meandata-files value="C:\Sumo\ntut\../../Users/User/2025-09-23-23-41-00/output.add.xml"/>
        <sumo-net-file value="C:\Sumo\ntut\ntut-the way.net.xml"/>
    </input>

    <output>
        <output-file value="C:\Sumo\ntut\ntut-the way.net.xml"/>
        <output.street-names value="true"/>
    </output>

    <processing>
        <geometry.min-radius.fix.railways value="false"/>
        <geometry.avoid-overlap value="false"/>
        <geometry.max-grade.fix value="false"/>
        <offset.disable-normalization value="true"/>
        <lefthand value="0"/>
    </processing>

    <junctions>
        <no-internal-links value="false"/>
        <no-turnarounds value="true"/>
        <junctions.corner-detail value="5"/>
        <junctions.limit-turn-speed value="5.50"/>
        <rectangular-lane-cut value="0"/>
    </junctions>

    <pedestrian>
        <walkingareas value="1"/>
    </pedestrian>

    <netedit>
        <ignore.routeelements value="false"/>
    </netedit>

</neteditConfiguration>
-->

<net version="1.20" junctionCornerDetail="5" walkingareas="true" limitTurnSpeed="5.50" avoidOverlap="0" xmlns:xsi="http://www.w3.org/2001/XMLSchema-instance" xsi:noNamespaceSchemaLocation="http://sumo.dlr.de/xsd/net_file.xsd">

    <location netOffset="-351603.84,-2770292.37" convBoundary="0.00,0.00,927.04,698.62" origBoundary="121.528958,25.041010,121.538156,25.047321" projParameter="+proj=utm +zone=51 +ellps=WGS84 +datum=WGS84 +units=m +no_defs"/>

    <type id="highway.primary" priority="12" numLanes="2" speed="13.89" disallow="pedestrian tram rail_urban rail rail_electric rail_fast ship container cable_car subway aircraft wheelchair scooter drone" oneway="0" sidewalkWidth="3.00"/>
    <type id="highway.residential" priority="3" numLanes="1" speed="13.89" disallow="pedestrian tram rail_urban rail rail_electric rail_fast ship container cable_car subway aircraft wheelchair scooter drone" oneway="0" sidewalkWidth="2.00"/>
    <type id="highway.secondary" priority="11" numLanes="1" speed="13.89" disallow="pedestrian tram rail_urban rail rail_electric rail_fast ship container cable_car subway aircraft wheelchair scooter drone" oneway="0" sidewalkWidth="3.00"/>
    <type id="highway.tertiary" priority="10" numLanes="1" speed="13.89" disallow="pedestrian tram rail_urban rail rail_electric rail_fast ship container cable_car subway aircraft wheelchair scooter drone" oneway="0" sidewalkWidth="3.00"/>
    <type id="highway.tertiary_link" priority="5" numLanes="1" speed="13.89" disallow="pedestrian tram rail_urban rail rail_electric rail_fast ship container cable_car subway aircraft wheelchair scooter drone" oneway="0" sidewalkWidth="2.00"/>
    <type id="highway.trunk" priority="13" numLanes="2" speed="13.89" disallow="pedestrian bicycle tram rail_urban rail rail_electric rail_fast ship container cable_car subway aircraft wheelchair scooter drone" oneway="0"/>
    <type id="highway.trunk_link" priority="8" numLanes="1" speed="13.89" disallow="pedestrian bicycle tram rail_urban rail rail_electric rail_fast ship container cable_car subway aircraft wheelchair scooter drone" oneway="0"/>

    <edge id=":11510670762_0" function="internal">
        <lane id=":11510670762_0_0" index="0" disallow="pedestrian tram rail_urban rail rail_electric rail_fast ship container cable_car subway aircraft wheelchair scooter drone" speed="13.89" length="3.67" shape="416.73,524.64 415.96,525.14 415.81,525.95 415.69,526.85 415.04,527.64"/>
    </edge>
    <edge id=":1926948273_0" function="internal">
        <lane id=":1926948273_0_0" index="0" disallow="pedestrian tram rail_urban rail rail_electric rail_fast ship container cable_car subway aircraft wheelchair scooter drone" speed="6.30" length="9.04" shape="36.02,180.63 33.92,179.26 31.93,178.95 30.07,179.70 28.33,181.52"/>
    </edge>
    <edge id=":1926948273_1" function="internal">
        <lane id=":1926948273_1_0" index="0" disallow="pedestrian tram rail_urban rail rail_electric rail_fast ship container cable_car subway aircraft wheelchair scooter drone" speed="13.89" length="12.06" shape="36.02,180.63 26.90,172.75"/>
    </edge>
    <edge id=":1926948273_2" function="internal">
        <lane id=":1926948273_2_0" index="0" disallow="pedestrian tram rail_urban rail rail_electric rail_fast ship container cable_car subway aircraft wheelchair scooter drone" speed="13.89" length="11.98" shape="34.11,171.07 32.28,173.76 31.12,176.22 30.02,178.71 28.33,181.52"/>
    </edge>
    <edge id=":1926948273_3" function="internal">
        <lane id=":1926948273_3_0" index="0" disallow="pedestrian tram rail_urban rail rail_electric rail_fast ship container cable_car subway aircraft wheelchair scooter drone" speed="6.27" length="4.46" shape="34.11,171.07 32.24,172.90 30.59,173.70"/>
    </edge>
    <edge id=":1926948273_4" function="internal">
        <lane id=":1926948273_4_0" index="0" disallow="pedestrian tram rail_urban rail rail_electric rail_fast ship container cable_car subway aircraft wheelchair scooter drone" speed="6.27" length="3.97" shape="30.59,173.70 30.42,173.79 28.64,173.74 26.90,172.75"/>
    </edge>
    <edge id=":1973482489_0" function="internal">
        <lane id=":1973482489_0_0" index="0" disallow="pedestrian tram rail_urban rail rail_electric rail_fast ship container cable_car subway aircraft wheelchair scooter drone" speed="7.27" length="9.94" shape="307.73,147.78 309.38,150.16 311.28,151.63 313.43,152.19 315.83,151.83"/>
        <lane id=":1973482489_0_1" index="1" disallow="pedestrian tram rail_urban rail rail_electric rail_fast ship container cable_car subway aircraft wheelchair scooter drone" speed="8.05" length="12.40" shape="307.73,147.78 310.02,151.43 312.30,153.82 314.57,154.97 316.81,154.87"/>
    </edge>
    <edge id=":1973482489_2" function="internal">
        <lane id=":1973482489_2_0" index="0" disallow="pedestrian tram rail_urban rail rail_electric rail_fast ship container cable_car subway aircraft wheelchair scooter drone" speed="3.65" length="4.67" shape="307.73,147.78 307.58,149.21 307.05,149.94 306.16,149.96 304.90,149.26"/>
    </edge>
    <edge id=":1973482489_3" function="internal">
        <lane id=":1973482489_3_0" index="0" disallow="pedestrian tram rail_urban rail rail_electric rail_fast ship container cable_car subway aircraft wheelchair scooter drone" speed="6.15" length="9.06" shape="302.04,156.29 304.34,155.17 305.58,153.62 305.77,151.65 304.90,149.26"/>
    </edge>
    <edge id=":1973482489_4" function="internal">
        <lane id=":1973482489_4_0" index="0" disallow="pedestrian tram rail_urban rail rail_electric rail_fast ship container cable_car subway aircraft wheelchair scooter drone" speed="13.89" length="14.49" shape="302.04,156.29 315.83,151.83"/>
        <lane id=":1973482489_4_1" index="1" disallow="pedestrian tram rail_urban rail rail_electric rail_fast ship container cable_car subway aircraft wheelchair scooter drone" speed="13.89" length="14.49" shape="303.03,159.34 316.81,154.87"/>
        <lane id=":1973482489_4_2" index="2" disallow="pedestrian tram rail_urban rail rail_electric rail_fast ship container cable_car subway aircraft wheelchair scooter drone" speed="13.89" length="14.49" shape="304.01,162.38 317.80,157.91"/>
        <lane id=":1973482489_4_3" index="3" disallow="pedestrian tram rail_urban rail rail_electric rail_fast ship container cable_car subway aircraft wheelchair scooter drone" speed="13.89" length="14.49" shape="305.00,165.43 318.79,160.96"/>
    </edge>
    <edge id=":2013717680_0" function="internal">
        <lane id=":2013717680_0_0" index="0" disallow="pedestrian tram rail_urban rail rail_electric rail_fast ship container cable_car subway aircraft wheelchair scooter drone" speed="3.65" length="4.67" shape="251.33,-0.10 252.20,-1.25 253.03,-1.60 253.80,-1.15 254.53,0.10"/>
    </edge>
    <edge id=":2081945236_0" function="internal">
        <lane id=":2081945236_0_0" index="0" disallow="pedestrian tram rail_urban rail rail_electric rail_fast ship container cable_car subway aircraft wheelchair scooter drone" speed="6.90" length="10.21" shape="63.32,192.66 62.18,189.78 60.59,187.92 58.56,187.09 56.09,187.28"/>
    </edge>
    <edge id=":2081945236_1" function="internal">
        <lane id=":2081945236_1_0" index="0" disallow="pedestrian tram rail_urban rail rail_electric rail_fast ship container cable_car subway aircraft wheelchair scooter drone" speed="13.89" length="14.25" shape="63.32,192.66 59.52,178.93"/>
    </edge>
    <edge id=":2081945236_2" function="internal">
        <lane id=":2081945236_2_0" index="0" disallow="pedestrian tram rail_urban rail rail_electric rail_fast ship container cable_car subway aircraft wheelchair scooter drone" speed="7.72" length="11.81" shape="63.32,192.66 62.68,188.97 62.97,186.03 64.19,183.83 66.34,182.36"/>
    </edge>
    <edge id=":2081945236_3" function="internal">
        <lane id=":2081945236_3_0" index="0" disallow="pedestrian tram rail_urban rail rail_electric rail_fast ship container cable_car subway aircraft wheelchair scooter drone" speed="13.89" length="11.56" shape="67.44,185.37 64.41,186.31 61.85,186.57 59.26,186.72 56.09,187.28"/>
    </edge>
    <edge id=":2081945236_4" function="internal">
        <lane id=":2081945236_4_0" index="0" disallow="pedestrian tram rail_urban rail rail_electric rail_fast ship container cable_car subway aircraft wheelchair scooter drone" speed="7.05" length="11.80" shape="67.44,185.37 64.90,185.83 62.73,184.90 60.94,182.60 59.52,178.93"/>
    </edge>
    <edge id=":2081945236_5" function="internal">
        <lane id=":2081945236_5_0" index="0" disallow="pedestrian tram rail_urban rail rail_electric rail_fast ship container cable_car subway aircraft wheelchair scooter drone" speed="3.65" length="4.68" shape="67.44,185.37 66.04,185.03 65.39,184.42 65.49,183.53 66.34,182.36"/>
    </edge>
    <edge id=":2444664370_0" function="internal">
        <lane id=":2444664370_0_0" index="0" disallow="pedestrian tram rail_urban rail rail_electric rail_fast ship container cable_car subway aircraft wheelchair scooter drone" speed="13.89" length="10.04" shape="398.75,289.82 399.35,292.39 400.59,293.91 402.00,295.41 403.14,297.90"/>
        <lane id=":2444664370_0_1" index="1" disallow="pedestrian tram rail_urban rail rail_electric rail_fast ship container cable_car subway aircraft wheelchair scooter drone" speed="13.89" length="10.04" shape="395.55,289.94 396.16,292.71 397.41,294.38 398.85,296.01 400.04,298.70"/>
        <lane id=":2444664370_0_2" index="2" disallow="pedestrian tram rail_urban rail rail_electric rail_fast ship container cable_car subway aircraft wheelchair scooter drone" speed="13.89" length="10.04" shape="392.36,290.06 392.97,293.03 394.24,294.84 395.71,296.61 396.94,299.49"/>
    </edge>
    <edge id=":2664674480_0" function="internal">
        <lane id=":2664674480_0_0" index="0" disallow="pedestrian tram rail_urban rail rail_electric rail_fast ship container cable_car subway aircraft wheelchair scooter drone" speed="13.89" length="5.60" shape="277.23,623.05 275.82,623.90 274.97,624.66 274.18,625.50 272.93,626.60"/>
    </edge>
    <edge id=":2664674480_1" function="internal">
        <lane id=":2664674480_1_0" index="0" disallow="pedestrian tram rail_urban rail rail_electric rail_fast ship container cable_car subway aircraft wheelchair scooter drone" speed="12.55" length="5.78" shape="277.23,623.05 275.69,623.56 274.53,623.42 273.32,623.04 271.61,622.83"/>
    </edge>
    <edge id=":2690921409_0" function="internal">
        <lane id=":2690921409_0_0" index="0" disallow="pedestrian tram rail_urban rail rail_electric rail_fast ship container cable_car subway aircraft wheelchair scooter drone" speed="6.54" length="8.86" shape="571.47,95.25 572.27,97.56 573.60,99.08 575.46,99.83 577.86,99.79"/>
    </edge>
    <edge id=":2690921409_1" function="internal">
        <lane id=":2690921409_1_0" index="0" disallow="pedestrian tram rail_urban rail rail_electric rail_fast ship container cable_car subway aircraft wheelchair scooter drone" speed="13.89" length="10.83" shape="567.12,101.58 577.86,99.79"/>
        <lane id=":2690921409_1_1" index="1" disallow="pedestrian tram rail_urban rail rail_electric rail_fast ship container cable_car subway aircraft wheelchair scooter drone" speed="13.89" length="10.83" shape="567.67,104.74 578.36,102.95"/>
        <lane id=":2690921409_1_2" index="2" disallow="pedestrian tram rail_urban rail rail_electric rail_fast ship container cable_car subway aircraft wheelchair scooter drone" speed="13.89" length="10.83" shape="568.22,107.89 578.86,106.11"/>
    </edge>
    <edge id=":2749340167_0" function="internal">
        <lane id=":2749340167_0_0" index="0" disallow="pedestrian tram rail_urban rail rail_electric rail_fast ship container cable_car subway aircraft wheelchair scooter drone" speed="13.89" length="9.37" shape="79.66,174.32 82.14,183.35"/>
    </edge>
    <edge id=":2749340167_1" function="internal">
        <lane id=":2749340167_1_0" index="0" disallow="pedestrian tram rail_urban rail rail_electric rail_fast ship container cable_car subway aircraft wheelchair scooter drone" speed="6.30" length="7.81" shape="79.66,174.32 80.15,176.99 80.08,179.04 79.44,180.49 78.25,181.33"/>
    </edge>
    <edge id=":2749340167_2" function="internal">
        <lane id=":2749340167_2_0" index="0" disallow="pedestrian tram rail_urban rail rail_electric rail_fast ship container cable_car subway aircraft wheelchair scooter drone" speed="6.01" length="7.90" shape="77.22,178.30 78.70,178.19 80.01,179.00 81.16,180.72 82.14,183.35"/>
    </edge>
    <edge id=":2749340167_3" function="internal">
        <lane id=":2749340167_3_0" index="0" disallow="pedestrian tram rail_urban rail rail_electric rail_fast ship container cable_car subway aircraft wheelchair scooter drone" speed="3.65" length="4.67" shape="77.22,178.30 78.61,178.67 79.25,179.29 79.13,180.18 78.25,181.33"/>
    </edge>
    <edge id=":2760755466_0" function="internal">
        <lane id=":2760755466_0_0" index="0" disallow="pedestrian tram rail_urban rail rail_electric rail_fast ship container cable_car subway aircraft wheelchair scooter drone" speed="3.65" length="4.67" shape="119.89,17.88 120.33,16.51 120.99,15.90 121.87,16.07 122.97,17.00"/>
    </edge>
    <edge id=":2877022366_0" function="internal">
        <lane id=":2877022366_0_0" index="0" disallow="pedestrian tram rail_urban rail rail_electric rail_fast ship container cable_car subway aircraft wheelchair scooter drone" speed="13.89" length="0.29" shape="634.28,90.85 634.51,90.81"/>
        <lane id=":2877022366_0_1" index="1" disallow="pedestrian tram rail_urban rail rail_electric rail_fast ship container cable_car subway aircraft wheelchair scooter drone" speed="13.89" length="0.29" shape="634.78,94.01 635.06,93.97"/>
        <lane id=":2877022366_0_2" index="2" disallow="pedestrian tram rail_urban rail rail_electric rail_fast ship container cable_car subway aircraft wheelchair scooter drone" speed="13.89" length="0.29" shape="635.28,97.17 635.61,97.12"/>
    </edge>
    <edge id=":3086736515_0" function="internal">
        <lane id=":3086736515_0_0" index="0" disallow="pedestrian bicycle tram rail_urban rail rail_electric rail_fast ship container cable_car subway aircraft wheelchair scooter drone" speed="3.65" length="4.67" shape="883.59,403.94 884.84,404.66 885.29,405.43 884.94,406.25 883.80,407.13"/>
    </edge>
    <edge id=":3086736518_0" function="internal">
        <lane id=":3086736518_0_0" index="0" disallow="pedestrian tram rail_urban rail rail_electric rail_fast ship container cable_car subway aircraft wheelchair scooter drone" speed="12.03" length="16.80" shape="576.71,439.82 574.24,438.83 570.69,438.66 566.06,439.32 560.34,440.80"/>
    </edge>
    <edge id=":3086736518_1" function="internal">
        <lane id=":3086736518_1_0" index="0" disallow="pedestrian tram rail_urban rail rail_electric rail_fast ship container cable_car subway aircraft wheelchair scooter drone" speed="13.89" length="15.69" shape="576.71,439.82 573.65,438.19 570.40,437.08 566.75,435.60 562.50,432.81"/>
        <lane id=":3086736518_1_1" index="1" disallow="pedestrian tram rail_urban rail rail_electric rail_fast ship container cable_car subway aircraft wheelchair scooter drone" speed="13.89" length="15.69" shape="576.71,439.82 564.52,430.32"/>
    </edge>
    <edge id=":3086736518_3" function="internal">
        <lane id=":3086736518_3_0" index="0" disallow="pedestrian bicycle tram rail_urban rail rail_electric rail_fast ship container cable_car subway aircraft wheelchair scooter drone" speed="6.80" length="3.64" shape="576.71,439.82 574.37,437.27 574.40,437.09"/>
    </edge>
    <edge id=":3086736518_4" function="internal">
        <lane id=":3086736518_4_0" index="0" disallow="pedestrian tram rail_urban rail rail_electric rail_fast ship container cable_car subway aircraft wheelchair scooter drone" speed="3.65" length="1.44" shape="576.71,439.82 576.19,438.47"/>
    </edge>
    <edge id=":3086736518_16" function="internal">
        <lane id=":3086736518_16_0" index="0" disallow="pedestrian bicycle tram rail_urban rail rail_electric rail_fast ship container cable_car subway aircraft wheelchair scooter drone" speed="6.80" length="11.93" shape="574.40,437.09 574.77,435.02 577.91,433.06 583.80,431.38"/>
    </edge>
    <edge id=":3086736518_17" function="internal">
        <lane id=":3086736518_17_0" index="0" disallow="pedestrian tram rail_urban rail rail_electric rail_fast ship container cable_car subway aircraft wheelchair scooter drone" speed="3.65" length="3.23" shape="576.19,438.47 576.32,437.59 577.11,437.16 578.55,437.20"/>
    </edge>
    <edge id=":3086736518_5" function="internal">
        <lane id=":3086736518_5_0" index="0" disallow="pedestrian bicycle tram rail_urban rail rail_electric rail_fast ship container cable_car subway aircraft wheelchair scooter drone" speed="4.86" length="7.15" shape="584.46,434.51 581.30,435.27 579.26,435.97 578.34,436.61 578.55,437.20"/>
    </edge>
    <edge id=":3086736518_6" function="internal">
        <lane id=":3086736518_6_0" index="0" disallow="pedestrian bicycle tram rail_urban rail rail_electric rail_fast ship container cable_car subway aircraft wheelchair scooter drone" speed="13.89" length="24.92" shape="584.46,434.51 560.34,440.80"/>
    </edge>
    <edge id=":3086736518_7" function="internal">
        <lane id=":3086736518_7_0" index="0" disallow="pedestrian bicycle tram rail_urban rail rail_electric rail_fast ship container cable_car subway aircraft wheelchair scooter drone" speed="13.67" length="5.75" shape="584.46,434.51 579.45,434.85 578.73,434.76"/>
    </edge>
    <edge id=":3086736518_8" function="internal">
        <lane id=":3086736518_8_0" index="0" disallow="pedestrian bicycle tram rail_urban rail rail_electric rail_fast ship container cable_car subway aircraft wheelchair scooter drone" speed="3.65" length="1.44" shape="584.46,434.51 583.12,433.98"/>
    </edge>
    <edge id=":3086736518_18" function="internal">
        <lane id=":3086736518_18_0" index="0" disallow="pedestrian bicycle tram rail_urban rail rail_electric rail_fast ship container cable_car subway aircraft wheelchair scooter drone" speed="13.67" length="15.05" shape="578.73,434.76 573.83,434.13 568.54,432.56 564.52,430.32"/>
    </edge>
    <edge id=":3086736518_19" function="internal">
        <lane id=":3086736518_19_0" index="0" disallow="pedestrian bicycle tram rail_urban rail rail_electric rail_fast ship container cable_car subway aircraft wheelchair scooter drone" speed="3.65" length="3.23" shape="583.12,433.98 582.56,433.28 582.79,432.41 583.80,431.38"/>
    </edge>
    <edge id=":3086736518_9" function="internal">
        <lane id=":3086736518_9_0" index="0" disallow="pedestrian bicycle tram rail_urban rail rail_electric rail_fast ship container cable_car subway aircraft wheelchair scooter drone" speed="12.35" length="16.88" shape="568.55,425.35 572.90,428.48 576.89,430.53 580.52,431.49 583.80,431.38"/>
    </edge>
    <edge id=":3086736518_10" function="internal">
        <lane id=":3086736518_10_0" index="0" disallow="pedestrian tram rail_urban rail rail_electric rail_fast ship container cable_car subway aircraft wheelchair scooter drone" speed="13.89" length="15.58" shape="568.55,425.35 572.08,428.85 574.29,432.01 576.13,434.80 578.55,437.20"/>
    </edge>
    <edge id=":3086736518_11" function="internal">
        <lane id=":3086736518_11_0" index="0" disallow="pedestrian tram rail_urban rail rail_electric rail_fast ship container cable_car subway aircraft wheelchair scooter drone" speed="7.87" length="3.76" shape="566.54,427.84 569.00,430.67"/>
    </edge>
    <edge id=":3086736518_12" function="internal">
        <lane id=":3086736518_12_0" index="0" disallow="pedestrian tram rail_urban rail rail_electric rail_fast ship container cable_car subway aircraft wheelchair scooter drone" speed="3.65" length="1.44" shape="566.54,427.84 566.96,429.22"/>
    </edge>
    <edge id=":3086736518_20" function="internal">
        <lane id=":3086736518_20_0" index="0" disallow="pedestrian tram rail_urban rail rail_electric rail_fast ship container cable_car subway aircraft wheelchair scooter drone" speed="7.87" length="16.15" shape="569.00,430.67 569.89,431.68 569.97,435.12 566.79,438.16 560.34,440.80"/>
    </edge>
    <edge id=":3086736518_21" function="internal">
        <lane id=":3086736518_21_0" index="0" disallow="pedestrian tram rail_urban rail rail_electric rail_fast ship container cable_car subway aircraft wheelchair scooter drone" speed="3.65" length="3.23" shape="566.96,429.22 566.77,430.09 565.96,430.46 564.52,430.32"/>
    </edge>
    <edge id=":3086736518_13" function="internal">
        <lane id=":3086736518_13_0" index="0" disallow="pedestrian tram rail_urban rail rail_electric rail_fast ship container cable_car subway aircraft wheelchair scooter drone" speed="5.23" length="7.92" shape="559.44,437.83 562.15,436.74 563.56,435.54 563.68,434.23 562.50,432.81"/>
    </edge>
    <edge id=":3086736518_14" function="internal">
        <lane id=":3086736518_14_0" index="0" disallow="pedestrian bicycle tram rail_urban rail rail_electric rail_fast ship container cable_car subway aircraft wheelchair scooter drone" speed="13.89" length="25.19" shape="559.44,437.83 564.58,436.34 571.58,434.44 578.60,432.62 583.80,431.38"/>
    </edge>
    <edge id=":3086736518_15" function="internal">
        <lane id=":3086736518_15_0" index="0" disallow="pedestrian tram rail_urban rail rail_electric rail_fast ship container cable_car subway aircraft wheelchair scooter drone" speed="12.84" length="11.03" shape="559.44,437.83 564.64,436.67 570.32,436.11"/>
    </edge>
    <edge id=":3086736518_22" function="internal">
        <lane id=":3086736518_22_0" index="0" disallow="pedestrian tram rail_urban rail rail_electric rail_fast ship container cable_car subway aircraft wheelchair scooter drone" speed="12.84" length="8.37" shape="570.32,436.11 575.35,436.25 578.55,437.20"/>
    </edge>
    <edge id=":3086736522_0" function="internal">
        <lane id=":3086736522_0_0" index="0" disallow="pedestrian bicycle tram rail_urban rail rail_electric rail_fast ship container cable_car subway aircraft wheelchair scooter drone" speed="7.09" length="8.63" shape="194.24,555.31 191.21,556.65 189.08,557.91 187.84,559.08 187.50,560.16"/>
    </edge>
    <edge id=":3086736522_1" function="internal">
        <lane id=":3086736522_1_0" index="0" disallow="pedestrian bicycle tram rail_urban rail rail_electric rail_fast ship container cable_car subway aircraft wheelchair scooter drone" speed="13.89" length="13.43" shape="194.24,555.31 181.60,559.84"/>
    </edge>
    <edge id=":3086736522_2" function="internal">
        <lane id=":3086736522_2_0" index="0" disallow="pedestrian bicycle tram rail_urban rail rail_electric rail_fast ship container cable_car subway aircraft wheelchair scooter drone" speed="3.65" length="1.44" shape="194.24,555.31 192.83,555.01"/>
    </edge>
    <edge id=":3086736522_7" function="internal">
        <lane id=":3086736522_7_0" index="0" disallow="pedestrian bicycle tram rail_urban rail rail_electric rail_fast ship container cable_car subway aircraft wheelchair scooter drone" speed="3.65" length="3.23" shape="192.83,555.01 192.16,554.42 192.24,553.53 193.06,552.34"/>
    </edge>
    <edge id=":3086736522_3" function="internal">
        <lane id=":3086736522_3_0" index="0" disallow="pedestrian bicycle tram rail_urban rail rail_electric rail_fast ship container cable_car subway aircraft wheelchair scooter drone" speed="5.58" length="8.24" shape="187.17,549.61 187.52,551.69 188.62,552.84 190.47,553.05 193.06,552.34"/>
    </edge>
    <edge id=":3086736522_4" function="internal">
        <lane id=":3086736522_4_0" index="0" disallow="pedestrian tram rail_urban rail rail_electric rail_fast ship container cable_car subway aircraft wheelchair scooter drone" speed="13.89" length="10.56" shape="187.17,549.61 187.13,552.67 187.12,554.90 187.22,557.12 187.50,560.16"/>
    </edge>
    <edge id=":3086736522_5" function="internal">
        <lane id=":3086736522_5_0" index="0" disallow="pedestrian bicycle tram rail_urban rail rail_electric rail_fast ship container cable_car subway aircraft wheelchair scooter drone" speed="13.89" length="13.19" shape="180.64,556.78 193.06,552.34"/>
    </edge>
    <edge id=":3086736522_6" function="internal">
        <lane id=":3086736522_6_0" index="0" disallow="pedestrian bicycle tram rail_urban rail rail_electric rail_fast ship container cable_car subway aircraft wheelchair scooter drone" speed="3.65" length="1.44" shape="180.64,556.78 182.02,557.19"/>
    </edge>
    <edge id=":3086736522_8" function="internal">
        <lane id=":3086736522_8_0" index="0" disallow="pedestrian bicycle tram rail_urban rail rail_electric rail_fast ship container cable_car subway aircraft wheelchair scooter drone" speed="3.65" length="3.23" shape="182.02,557.19 182.64,557.83 182.50,558.71 181.60,559.84"/>
    </edge>
    <edge id=":3139322031_0" function="internal">
        <lane id=":3139322031_0_0" index="0" disallow="pedestrian tram rail_urban rail rail_electric rail_fast ship container cable_car subway aircraft wheelchair scooter drone" speed="5.59" length="9.34" shape="53.31,156.84 52.19,154.21 50.75,153.11 48.99,153.55 46.91,155.51"/>
    </edge>
    <edge id=":3139322031_1" function="internal">
        <lane id=":3139322031_1_0" index="0" disallow="pedestrian tram rail_urban rail rail_electric rail_fast ship container cable_car subway aircraft wheelchair scooter drone" speed="13.89" length="11.89" shape="53.31,156.84 50.21,145.36"/>
    </edge>
    <edge id=":3208478121_0" function="internal">
        <lane id=":3208478121_0_0" index="0" disallow="pedestrian tram rail_urban rail rail_electric rail_fast ship container cable_car subway aircraft wheelchair scooter drone" speed="6.09" length="7.85" shape="746.79,294.14 745.40,293.66 744.47,292.42 743.99,290.42 743.97,287.65"/>
    </edge>
    <edge id=":3208478121_1" function="internal">
        <lane id=":3208478121_1_0" index="0" disallow="pedestrian tram rail_urban rail rail_electric rail_fast ship container cable_car subway aircraft wheelchair scooter drone" speed="3.65" length="4.67" shape="746.79,294.14 745.64,293.27 745.28,292.45 745.73,291.67 746.97,290.94"/>
    </edge>
    <edge id=":3208478121_2" function="internal">
        <lane id=":3208478121_2_0" index="0" disallow="pedestrian tram rail_urban rail rail_electric rail_fast ship container cable_car subway aircraft wheelchair scooter drone" speed="13.89" length="9.56" shape="740.38,297.07 740.77,287.44"/>
        <lane id=":3208478121_2_1" index="1" disallow="pedestrian tram rail_urban rail rail_electric rail_fast ship container cable_car subway aircraft wheelchair scooter drone" speed="13.89" length="9.56" shape="743.58,297.12 743.97,287.65"/>
    </edge>
    <edge id=":3208478121_4" function="internal">
        <lane id=":3208478121_4_0" index="0" disallow="pedestrian tram rail_urban rail rail_electric rail_fast ship container cable_car subway aircraft wheelchair scooter drone" speed="6.04" length="7.87" shape="743.58,297.12 743.83,294.35 744.48,292.40 745.53,291.26 746.97,290.94"/>
    </edge>
    <edge id=":3208478128_0" function="internal">
        <lane id=":3208478128_0_0" index="0" disallow="pedestrian tram rail_urban rail rail_electric rail_fast ship container cable_car subway aircraft wheelchair scooter drone" speed="13.89" length="9.56" shape="346.74,540.43 349.53,539.68 351.50,539.42 353.50,539.28 356.38,538.91"/>
        <lane id=":3208478128_0_1" index="1" disallow="pedestrian tram rail_urban rail rail_electric rail_fast ship container cable_car subway aircraft wheelchair scooter drone" speed="13.89" length="9.56" shape="347.70,543.48 350.37,542.77 352.25,542.54 354.16,542.42 356.91,542.07"/>
    </edge>
    <edge id=":3208478128_2" function="internal">
        <lane id=":3208478128_2_0" index="0" disallow="pedestrian tram rail_urban rail rail_electric rail_fast ship container cable_car subway aircraft wheelchair scooter drone" speed="8.40" length="9.67" shape="347.70,543.48 349.77,543.19 351.91,543.61 354.12,544.74 356.39,546.58"/>
    </edge>
    <edge id=":3208478132_0" function="internal">
        <lane id=":3208478132_0_0" index="0" disallow="pedestrian tram rail_urban rail rail_electric rail_fast ship container cable_car subway aircraft wheelchair scooter drone" speed="13.89" length="7.76" shape="365.20,564.73 358.52,568.69"/>