<?xml version="1.0" encoding="UTF-8"?>

<!-- generated on 2026-02-25 23:39:19 by Eclipse SUMO GUI Version 1.24.0
<sumoConfiguration xmlns:xsi="http://www.w3.org/2001/XMLSchema-instance" xsi:noNamespaceSchemaLocation="http://sumo.dlr.de/xsd/sumoConfiguration.xsd">

    <input>
        <net-file value="C:\Users\User\Downloads\System-of-the-control-traffic-light-main\System-of-the-control-traffic-light-main\data\ntut_network_split.net.xml"/>
        <route-files value="C:\Users\User\Downloads\System-of-the-control-traffic-light-main\System-of-the-control-traffic-light-main\data\final_output.rou.xml"/>
        <additional-files value="C:\Users\User\Downloads\System-of-the-control-traffic-light-main\System-of-the-control-traffic-light-main\data\traffic_light_integrated.add.xml"/>
    </input>

    <output>
        <output-prefix value="ntut_"/>
        <tripinfo-output value="C:\Users\User\Downloads\System-of-the-control-traffic-light-main\System-of-the-control-traffic-light-main\data\tripinfos.xml"/>
        <statistic-output value="C:\Users\User\Downloads\System-of-the-control-traffic-light-main\System-of-the-control-traffic-light-main\data\stats.xml"/>
    </output>

    <processing>
        <ignore-route-errors value="true"/>
        <tls.actuated.jam-threshold value="30"/>
    </processing>

    <routing>
        <device.rerouting.adaptation-steps value="18"/>
        <device.rerouting.adaptation-interval value="10"/>
    </routing>

    <report>
        <verbose value="true"/>
        <duration-log.statistics value="true"/>
        <no-step-log value="true"/>
    </report>

</sumoConfiguration>
-->

<tripinfos xmlns:xsi="http://www.w3.org/2001/XMLSchema-instance" xsi:noNamespaceSchemaLocation="http://sumo.dlr.de/xsd/tripinfo_file.xsd">
    <tripinfo id="Flow26.0" depart="0.00" departLane="593852343_0" departPos="0.20" departSpeed="0.00" departDelay="0.00" arrival="1.00" arrivalLane="593852343_0" arrivalPos="0.20" arrivalSpeed="1.51" duration="1.00" routeLength="0.00" waitingTime="0.00" waitingCount="0" stopTime="0.00" timeLoss="0.88" rerouteNo="0" devices="tripinfo_Flow26.0" vType="Car26" speedFactor="1.16" vaporized=""/>
    <tripinfo id="Flow23.0" depart="0.00" departLane="314800955_0" departPos="5.10" departSpeed="0.00" departDelay="0.00" arrival="3.00" arrivalLane="314800955_0" arrivalPos="14.48" arrivalSpeed="5.61" duration="3.00" routeLength="9.38" waitingTime="0.00" waitingCount="0" stopTime="0.00" timeLoss="2.12" rerouteNo="0" devices="tripinfo_Flow23.0" vType="Car23" speedFactor="0.88" vaporized=""/>
    <tripinfo id="Flow27.0" depart="0.00" departLane="910567294_1" departPos="5.10" departSpeed="0.00" departDelay="0.00" arrival="4.00" arrivalLane="910567294_1" arrivalPos="20.06" arrivalSpeed="9.33" duration="4.00" routeLength="14.96" waitingTime="0.00" waitingCount="0" stopTime="0.00" timeLoss="2.32" rerouteNo="0" devices="tripinfo_Flow27.0" vType="Car27" speedFactor="1.02" vaporized=""/>
    <tripinfo id="Flow21.0" depart="0.00" departLane="244450512#0_0" departPos="5.10" departSpeed="0.00" departDelay="0.00" arrival="6.00" arrivalLane="244450512#1_0" arrivalPos="17.86" arrivalSpeed="12.10" duration="6.00" routeLength="39.30" waitingTime="0.00" waitingCount="0" stopTime="0.00" timeLoss="2.93" rerouteNo="0" devices="tripinfo_Flow21.0" vType="Car21" speedFactor="0.99" vaporized=""/>
    <tripinfo id="Flow19.0" depart="0.00" departLane="51362429#0_0" departPos="5.10" departSpeed="0.00" departDelay="0.00" arrival="8.00" arrivalLane="51362429#0_0" arrivalPos="70.37" arrivalSpeed="12.97" duration="8.00" routeLength="65.27" waitingTime="0.00" waitingCount="0" stopTime="0.00" timeLoss="3.18" rerouteNo="0" devices="tripinfo_Flow19.0" vType="Car19" speedFactor="1.03" vaporized=""/>
    <tripinfo id="Flow10.0" depart="0.00" departLane="51362431_1" departPos="5.10" departSpeed="0.00" departDelay="0.00" arrival="9.00" arrivalLane="51362431_1" arrivalPos="69.52" arrivalSpeed="13.03" duration="9.00" routeLength="64.42" waitingTime="0.00" waitingCount="0" stopTime="0.00" timeLoss="3.75" rerouteNo="0" devices="tripinfo_Flow10.0" vType="Car10" speedFactor="1.01" vaporized=""/>
    <tripinfo id="Flow20.0" depart="0.00" departLane="906806086#0_1" departPos="5.10" departSpeed="0.00" departDelay="0.00" arrival="9.00" arrivalLane="906806086#0_1" arrivalPos="73.87" arrivalSpeed="11.29" duration="9.00" routeLength="68.77" waitingTime="0.00" waitingCount="0" stopTime="0.00" timeLoss="3.01" rerouteNo="0" devices="tripinfo_Flow20.0" vType="Car20" speedFactor="1.12" vaporized=""/>
    <tripinfo id="Flow25.0" depart="0.00" departLane="196961379#0_0" departPos="5.10" departSpeed="0.00" departDelay="0.00" arrival="11.00" arrivalLane="196961379#0_0" arrivalPos="109.10" arrivalSpeed="12.27" duration="11.00" routeLength="104.00" waitingTime="0.00" waitingCount="0" stopTime="0.00" timeLoss="2.65" rerouteNo="0" devices="tripinfo_Flow25.0" vType="Car25" speedFactor="0.94" vaporized=""/>
    <tripinfo id="Flow6.0" depart="0.00" departLane="288135628#0_1" departPos="5.10" departSpeed="0.00" departDelay="0.00" arrival="11.00" arrivalLane="288135628#0_1" arrivalPos="97.06" arrivalSpeed="11.02" duration="11.00" routeLength="91.96" waitingTime="0.00" waitingCount="0" stopTime="0.00" timeLoss="2.87" rerouteNo="0" devices="tripinfo_Flow6.0" vType="Car6" speedFactor="0.83" vaporized=""/>
    <tripinfo id="Flow26.1" depart="10.00" departLane="593852343_0" departPos="0.20" departSpeed="0.00" departDelay="0.62" arrival="11.00" arrivalLane="593852343_0" arrivalPos="0.20" arrivalSpeed="2.18" duration="1.00" routeLength="0.00" waitingTime="0.00" waitingCount="0" stopTime="0.00" timeLoss="0.81" rerouteNo="0" devices="tripinfo_Flow26.1" vType="Car26" speedFactor="1.01" vaporized=""/>
    <tripinfo id="Flow13.0" depart="0.00" departLane="51362359#0_0" departPos="5.10" departSpeed="0.00" departDelay="0.00" arrival="12.00" arrivalLane="51362359#0_0" arrivalPos="103.78" arrivalSpeed="10.36" duration="12.00" routeLength="98.68" waitingTime="0.00" waitingCount="0" stopTime="0.00" timeLoss="3.10" rerouteNo="0" devices="tripinfo_Flow13.0" vType="Car13" speedFactor="0.83" vaporized=""/>
    <tripinfo id="Flow0.0" depart="0.00" departLane="232003903#0_1" departPos="5.10" departSpeed="0.00" departDelay="0.00" arrival="15.00" arrivalLane="593844216#0_1" arrivalPos="108.57" arrivalSpeed="14.32" duration="15.00" routeLength="159.10" waitingTime="0.00" waitingCount="0" stopTime="0.00" timeLoss="3.85" rerouteNo="0" devices="tripinfo_Flow0.0" vType="Car0" speedFactor="1.06" vaporized=""/>
    <tripinfo id="Flow17.0" depart="0.00" departLane="506322841#1_1" departPos="5.10" departSpeed="0.00" departDelay="0.00" arrival="17.00" arrivalLane="182336887#2_0" arrivalPos="35.41" arrivalSpeed="10.98" duration="17.00" routeLength="107.92" waitingTime="0.00" waitingCount="0" stopTime="0.00" timeLoss="5.73" rerouteNo="0" devices="tripinfo_Flow17.0" vType="Car17" speedFactor="0.86" vaporized=""/>
    <tripinfo id="Flow15.0" depart="0.00" departLane="288878927_0" departPos="5.10" departSpeed="0.00" departDelay="0.00" arrival="19.00" arrivalLane="196961378#1_1" arrivalPos="111.16" arrivalSpeed="11.76" duration="19.00" routeLength="160.97" waitingTime="0.00" waitingCount="0" stopTime="0.00" timeLoss="5.30" rerouteNo="0" devices="tripinfo_Flow15.0" vType="Car15" speedFactor="0.89" vaporized=""/>
    <tripinfo id="Flow26.2" depart="19.00" departLane="593852343_0" departPos="0.20" departSpeed="0.00" departDelay="0.25" arrival="20.00" arrivalLane="593852343_0" arrivalPos="0.20" arrivalSpeed="2.45" duration="1.00" routeLength="0.00" waitingTime="0.00" waitingCount="0" stopTime="0.00" timeLoss="0.79" rerouteNo="0" devices="tripinfo_Flow26.2" vType="Car26" speedFactor="1.04" vaporized=""/>
    <tripinfo id="Flow20.1" depart="13.00" departLane="906806086#0_1" departPos="5.10" departSpeed="0.00" departDelay="0.50" arrival="22.00" arrivalLane="906806086#0_1" arrivalPos="73.87" arrivalSpeed="10.92" duration="9.00" routeLength="68.77" waitingTime="0.00" waitingCount="0" stopTime="0.00" timeLoss="2.21" rerouteNo="0" devices="tripinfo_Flow20.1" vType="Car20" speedFactor="0.99" vaporized=""/>
    <tripinfo id="Flow21.1" depart="15.00" departLane="244450512#0_0" departPos="5.10" departSpeed="0.00" departDelay="0.00" arrival="22.00" arrivalLane="244450512#1_0" arrivalPos="17.86" arrivalSpeed="13.30" duration="7.00" routeLength="39.30" waitingTime="0.00" waitingCount="0" stopTime="0.00" timeLoss="3.65" rerouteNo="0" devices="tripinfo_Flow21.1" vType="Car21" speedFactor="1.10" vaporized=""/>
    <tripinfo id="Flow10.1" depart="15.00" departLane="51362431_1" departPos="5.10" departSpeed="0.00" departDelay="0.00" arrival="23.00" arrivalLane="51362431_1" arrivalPos="69.52" arrivalSpeed="16.16" duration="8.00" routeLength="64.42" waitingTime="0.00" waitingCount="0" stopTime="0.00" timeLoss="3.38" rerouteNo="0" devices="tripinfo_Flow10.1" vType="Car10" speedFactor="1.18" vaporized=""/>
    <tripinfo id="Flow24.0" depart="0.00" departLane="48794887#0_0" departPos="5.10" departSpeed="0.00" departDelay="0.00" arrival="27.00" arrivalLane="48794887#0_0" arrivalPos="296.31" arrivalSpeed="12.66" duration="27.00" routeLength="291.21" waitingTime="0.00" waitingCount="0" stopTime="0.00" timeLoss="4.35" rerouteNo="0" devices="tripinfo_Flow24.0" vType="Car24" speedFactor="0.94" vaporized=""/>
    <tripinfo id="Flow1.0" depart="0.00" departLane="49073247#0_1" departPos="5.10" departSpeed="0.00" departDelay="0.00" arrival="29.00" arrivalLane="593849718#0_1" arrivalPos="89.50" arrivalSpeed="12.64" duration="29.00" routeLength="263.03" waitingTime="0.00" waitingCount="0" stopTime="0.00" timeLoss="7.57" rerouteNo="0" devices="tripinfo_Flow1.0" vType="Car1" speedFactor="0.94" vaporized=""/>
    <tripinfo id="Flow26.3" depart="29.00" departLane="593852343_0" departPos="0.20" departSpeed="0.00" departDelay="0.87" arrival="30.00" arrivalLane="593852343_0" arrivalPos="0.20" arrivalSpeed="1.97" duration="1.00" routeLength="0.00" waitingTime="0.00" waitingCount="0" stopTime="0.00" timeLoss="0.85" rerouteNo="0" devices="tripinfo_Flow26.3" vType="Car26" speedFactor="1.14" vaporized=""/>
    <tripinfo id="Flow20.2" depart="25.00" departLane="906806086#0_1" departPos="5.10" departSpeed="0.00" departDelay="0.00" arrival="34.00" arrivalLane="906806086#0_1" arrivalPos="73.87" arrivalSpeed="10.69" duration="9.00" routeLength="68.77" waitingTime="0.00" waitingCount="0" stopTime="0.00" timeLoss="2.84" rerouteNo="0" devices="tripinfo_Flow20.2" vType="Car20" speedFactor="1.02" vaporized=""/>
    <tripinfo id="Flow0.1" depart="20.00" departLane="232003903#0_1" departPos="5.10" departSpeed="0.00" departDelay="0.00" arrival="35.00" arrivalLane="593844216#0_1" arrivalPos="108.57" arrivalSpeed="14.32" duration="15.00" routeLength="159.10" waitingTime="0.00" waitingCount="0" stopTime="0.00" timeLoss="4.30" rerouteNo="0" devices="tripinfo_Flow0.1" vType="Car0" speedFactor="1.09" vaporized=""/>
    <tripinfo id="Flow21.2" depart="30.00" departLane="244450512#0_0" departPos="5.10" departSpeed="0.00" departDelay="0.00" arrival="36.00" arrivalLane="244450512#1_0" arrivalPos="17.86" arrivalSpeed="11.61" duration="6.00" routeLength="39.30" waitingTime="0.00" waitingCount="0" stopTime="0.00" timeLoss="3.20" rerouteNo="0" devices="tripinfo_Flow21.2" vType="Car21" speedFactor="1.08" vaporized=""/>
    <tripinfo id="Flow7.0" depart="0.00" departLane="506322857#0_0" departPos="5.10" departSpeed="0.00" departDelay="0.00" arrival="38.00" arrivalLane="420578931#1_0" arrivalPos="35.90" arrivalSpeed="11.68" duration="38.00" routeLength="358.34" waitingTime="0.00" waitingCount="0" stopTime="0.00" timeLoss="6.23" rerouteNo="0" devices="tripinfo_Flow7.0" vType="Car7" speedFactor="0.87" vaporized=""/>
    <tripinfo id="Flow10.2" depart="30.00" departLane="51362431_1" departPos="5.10" departSpeed="0.00" departDelay="0.00" arrival="38.00" arrivalLane="51362431_1" arrivalPos="69.52" arrivalSpeed="14.02" duration="8.00" routeLength="64.42" waitingTime="0.00" waitingCount="0" stopTime="0.00" timeLoss="2.69" rerouteNo="0" devices="tripinfo_Flow10.2" vType="Car10" speedFactor="1.02" vaporized=""/>
    <tripinfo id="Flow19.1" depart="30.00" departLane="51362429#0_0" departPos="5.10" departSpeed="0.00" departDelay="0.00" arrival="38.00" arrivalLane="51362429#0_0" arrivalPos="70.37" arrivalSpeed="12.94" duration="8.00" routeLength="65.27" waitingTime="0.00" waitingCount="0" stopTime="0.00" timeLoss="2.87" rerouteNo="0" devices="tripinfo_Flow19.1" vType="Car19" speedFactor="0.97" vaporized=""/>
    <tripinfo id="Flow26.4" depart="38.00" departLane="593852343_0" departPos="0.20" departSpeed="0.00" departDelay="0.50" arrival="39.00" arrivalLane="593852343_0" arrivalPos="0.20" arrivalSpeed="1.73" duration="1.00" routeLength="0.00" waitingTime="0.00" waitingCount="0" stopTime="0.00" timeLoss="0.85" rerouteNo="0" devices="tripinfo_Flow26.4" vType="Car26" speedFactor="1.02" vaporized=""/>
    <tripinfo id="Flow7.1" depart="8.00" departLane="506322857#0_0" departPos="5.10" departSpeed="0.00" departDelay="0.50" arrival="40.00" arrivalLane="420578931#1_0" arrivalPos="35.90" arrivalSpeed="15.08" duration="32.00" routeLength="358.34" waitingTime="0.00" waitingCount="0" stopTime="0.00" timeLoss="7.29" rerouteNo="0" devices="tripinfo_Flow7.1" vType="Car7" speedFactor="1.13" vaporized=""/>
    <tripinfo id="Flow22.2" depart="19.00" departLane="506322840#0_1" departPos="5.10" departSpeed="0.00" departDelay="0.25" arrival="40.00" arrivalLane="263217603#0_1" arrivalPos="25.71" arrivalSpeed="11.89" duration="21.00" routeLength="147.65" waitingTime="0.00" waitingCount="0" stopTime="0.00" timeLoss="8.02" rerouteNo="0" devices="tripinfo_Flow22.2" vType="Car22" speedFactor="1.04" vaporized=""/>
    <tripinfo id="Flow11.1" depart="25.00" departLane="593847701_1" departPos="0.20" departSpeed="0.00" departDelay="0.00" arrival="40.00" arrivalLane="E0_0" arrivalPos="145.96" arrivalSpeed="15.96" duration="15.00" routeLength="163.13" waitingTime="0.00" waitingCount="0" stopTime="0.00" timeLoss="4.68" rerouteNo="0" devices="tripinfo_Flow11.1" vType="Car11" speedFactor="1.17" vaporized=""/>
    <tripinfo id="Flow9.2" depart="24.00" departLane="288878926#0_0" departPos="5.10" departSpeed="0.00" departDelay="0.00" arrival="41.00" arrivalLane="593849711#0_1" arrivalPos="24.25" arrivalSpeed="9.31" duration="17.00" routeLength="128.20" waitingTime="0.00" waitingCount="0" stopTime="0.00" timeLoss="4.27" rerouteNo="0" devices="tripinfo_Flow9.2" vType="Car9" speedFactor="0.85" vaporized=""/>
    <tripinfo id="Flow20.3" depart="38.00" departLane="906806086#0_1" departPos="5.10" departSpeed="0.00" departDelay="0.50" arrival="48.00" arrivalLane="906806086#0_1" arrivalPos="73.87" arrivalSpeed="9.14" duration="10.00" routeLength="68.77" waitingTime="0.00" waitingCount="0" stopTime="0.00" timeLoss="2.38" rerouteNo="0" devices="tripinfo_Flow20.3" vType="Car20" speedFactor="0.91" vaporized=""/>
    <tripinfo id="Flow26.5" depart="47.00" departLane="593852343_0" departPos="0.20" departSpeed="0.00" departDelay="0.12" arrival="48.00" arrivalLane="593852343_0" arrivalPos="0.20" arrivalSpeed="1.44" duration="1.00" routeLength="0.00" waitingTime="0.00" waitingCount="0" stopTime="0.00" timeLoss="0.89" rerouteNo="0" devices="tripinfo_Flow26.5" vType="Car26" speedFactor="1.15" vaporized=""/>
    <tripinfo id="Flow18.0" depart="0.00" departLane="49073272#3_0" departPos="5.10" departSpeed="0.00" departDelay="0.00" arrival="52.00" arrivalLane="360018417_1" arrivalPos="42.39" arrivalSpeed="14.98" duration="52.00" routeLength="59.48" waitingTime="39.00" waitingCount="1" stopTime="0.00" timeLoss="46.68" rerouteNo="0" devices="tripinfo_Flow18.0" vType="Car18" speedFactor="1.09" vaporized=""/>
    <tripinfo id="Flow21.3" depart="45.00" departLane="244450512#0_0" departPos="5.10" departSpeed="0.00" departDelay="0.00" arrival="52.00" arrivalLane="244450512#1_0" arrivalPos="17.86" arrivalSpeed="12.24" duration="7.00" routeLength="39.30" waitingTime="0.00" waitingCount="0" stopTime="0.00" timeLoss="3.50" rerouteNo="0" devices="tripinfo_Flow21.3" vType="Car21" speedFactor="1.03" vaporized=""/>
    <tripinfo id="Flow7.2" depart="15.00" departLane="506322857#0_0" departPos="5.10" departSpeed="0.00" departDelay="0.00" arrival="53.00" arrivalLane="420578931#1_0" arrivalPos="35.90" arrivalSpeed="12.29" duration="38.00" routeLength="358.34" waitingTime="0.00" waitingCount="0" stopTime="0.00" timeLoss="7.22" rerouteNo="0" devices="tripinfo_Flow7.2" vType="Car7" speedFactor="0.90" vaporized=""/>
    <tripinfo id="Flow10.3" depart="45.00" departLane="51362431_1" departPos="5.10" departSpeed="0.00" departDelay="0.00" arrival="53.00" arrivalLane="51362431_1" arrivalPos="69.52" arrivalSpeed="14.59" duration="8.00" routeLength="64.42" waitingTime="0.00" waitingCount="0" stopTime="0.00" timeLoss="3.54" rerouteNo="0" devices="tripinfo_Flow10.3" vType="Car10" speedFactor="1.09" vaporized=""/>
    <tripinfo id="Flow25.1" depart="43.00" departLane="196961379#0_0" departPos="5.10" departSpeed="0.00" departDelay="0.14" arrival="54.00" arrivalLane="196961379#0_0" arrivalPos="109.10" arrivalSpeed="12.91" duration="11.00" routeLength="104.00" waitingTime="0.00" waitingCount="0" stopTime="0.00" timeLoss="2.83" rerouteNo="0" devices="tripinfo_Flow25.1" vType="Car25" speedFactor="1.01" vaporized=""/>
    <tripinfo id="Flow0.2" depart="40.00" departLane="232003903#0_1" departPos="5.10" departSpeed="0.00" departDelay="0.00" arrival="56.00" arrivalLane="593844216#0_1" arrivalPos="108.57" arrivalSpeed="14.55" duration="16.00" routeLength="159.10" waitingTime="0.00" waitingCount="0" stopTime="0.00" timeLoss="4.48" rerouteNo="0" devices="tripinfo_Flow0.2" vType="Car0" speedFactor="1.06" vaporized=""/>
    <tripinfo id="Flow18.1" depart="50.00" departLane="49073272#3_0" departPos="5.10" departSpeed="0.00" departDelay="0.00" arrival="58.00" arrivalLane="360018417_1" arrivalPos="42.39" arrivalSpeed="14.04" duration="8.00" routeLength="59.48" waitingTime="0.00" waitingCount="0" stopTime="0.00" timeLoss="3.07" rerouteNo="0" devices="tripinfo_Flow18.1" vType="Car18" speedFactor="1.02" vaporized=""/>
    <tripinfo id="Flow26.6" depart="57.00" departLane="593852343_0" departPos="0.20" departSpeed="0.00" departDelay="0.75" arrival="58.00" arrivalLane="593852343_0" arrivalPos="0.20" arrivalSpeed="1.99" duration="1.00" routeLength="0.00" waitingTime="0.00" waitingCount="0" stopTime="0.00" timeLoss="0.82" rerouteNo="0" devices="tripinfo_Flow26.6" vType="Car26" speedFactor="1.01" vaporized=""/>
    <tripinfo id="Flow20.4" depart="50.00" departLane="906806086#0_1" departPos="5.10" departSpeed="0.00" departDelay="0.00" arrival="59.00" arrivalLane="906806086#0_1" arrivalPos="73.87" arrivalSpeed="10.78" duration="9.00" routeLength="68.77" waitingTime="0.00" waitingCount="0" stopTime="0.00" timeLoss="2.85" rerouteNo="0" devices="tripinfo_Flow20.4" vType="Car20" speedFactor="1.02" vaporized=""/>
    <tripinfo id="Flow7.3" depart="23.00" departLane="506322857#0_0" departPos="5.10" departSpeed="0.00" departDelay="0.50" arrival="61.00" arrivalLane="420578931#1_0" arrivalPos="35.90" arrivalSpeed="12.14" duration="38.00" routeLength="358.34" waitingTime="0.00" waitingCount="0" stopTime="0.00" timeLoss="6.98" rerouteNo="0" devices="tripinfo_Flow7.3" vType="Car7" speedFactor="0.88" vaporized=""/>
    <tripinfo id="Flow15.1" depart="43.00" departLane="288878927_0" departPos="5.10" departSpeed="0.00" departDelay="0.14" arrival="62.00" arrivalLane="196961378#1_1" arrivalPos="111.16" arrivalSpeed="12.41" duration="19.00" routeLength="160.97" waitingTime="0.00" waitingCount="0" stopTime="0.00" timeLoss="5.80" rerouteNo="0" devices="tripinfo_Flow15.1" vType="Car15" speedFactor="0.98" vaporized=""/>
    <tripinfo id="Flow7.4" depart="30.00" departLane="506322857#0_0" departPos="5.10" departSpeed="0.00" departDelay="0.00" arrival="64.00" arrivalLane="420578931#1_0" arrivalPos="35.90" arrivalSpeed="13.59" duration="34.00" routeLength="358.34" waitingTime="0.00" waitingCount="0" stopTime="0.00" timeLoss="6.36" rerouteNo="0" devices="tripinfo_Flow7.4" vType="Car7" speedFactor="1.02" vaporized=""/>
    <tripinfo id="Flow9.4" depart="48.00" departLane="288878926#0_0" departPos="5.10" departSpeed="0.00" departDelay="0.00" arrival="64.00" arrivalLane="593849711#0_1" arrivalPos="24.25" arrivalSpeed="11.11" duration="16.00" routeLength="128.20" waitingTime="0.00" waitingCount="0" stopTime="0.00" timeLoss="5.55" rerouteNo="0" devices="tripinfo_Flow9.4" vType="Car9" speedFactor="1.00" vaporized=""/>
    <tripinfo id="Flow11.2" depart="50.00" departLane="1068440006#0_1" departPos="5.10" departSpeed="0.00" departDelay="0.00" arrival="67.00" arrivalLane="1068440006#0_1" arrivalPos="154.52" arrivalSpeed="10.65" duration="17.00" routeLength="149.42" waitingTime="0.00" waitingCount="0" stopTime="0.00" timeLoss="2.74" rerouteNo="0" devices="tripinfo_Flow11.2" vType="Car11" speedFactor="1.01" vaporized=""/>
    <tripinfo id="Flow21.4" depart="60.00" departLane="244450512#0_0" departPos="5.10" departSpeed="0.00" departDelay="0.00" arrival="67.00" arrivalLane="244450512#1_0" arrivalPos="17.86" arrivalSpeed="12.73" duration="7.00" routeLength="39.30" waitingTime="0.00" waitingCount="0" stopTime="0.00" timeLoss="3.16" rerouteNo="0" devices="tripinfo_Flow21.4" vType="Car21" speedFactor="0.97" vaporized=""/>
    <tripinfo id="Flow26.7" depart="66.00" departLane="593852343_0" departPos="0.20" departSpeed="0.00" departDelay="0.37" arrival="67.00" arrivalLane="593852343_0" arrivalPos="0.20" arrivalSpeed="2.23" duration="1.00" routeLength="0.00" waitingTime="0.00" waitingCount="0" stopTime="0.00" timeLoss="0.82" rerouteNo="0" devices="tripinfo_Flow26.7" vType="Car26" speedFactor="1.10" vaporized=""/>
    <tripinfo id="Flow10.4" depart="60.00" departLane="51362431_1" departPos="5.10" departSpeed="0.00" departDelay="0.00" arrival="68.00" arrivalLane="51362431_1" arrivalPos="69.52" arrivalSpeed="14.81" duration="8.00" routeLength="64.42" waitingTime="0.00" waitingCount="0" stopTime="0.00" timeLoss="3.65" rerouteNo="0" devices="tripinfo_Flow10.4" vType="Car10" speedFactor="1.10" vaporized=""/>
    <tripinfo id="Flow19.2" depart="60.00" departLane="51362429#0_0" departPos="5.10" departSpeed="0.00" departDelay="0.00" arrival="69.00" arrivalLane="51362429#0_0" arrivalPos="70.37" arrivalSpeed="13.21" duration="9.00" routeLength="65.27" waitingTime="0.00" waitingCount="0" stopTime="0.00" timeLoss="3.30" rerouteNo="0" devices="tripinfo_Flow19.2" vType="Car19" speedFactor="0.96" vaporized=""/>
    <tripinfo id="Flow20.5" depart="63.00" departLane="906806086#0_1" departPos="5.10" departSpeed="0.00" departDelay="0.50" arrival="72.00" arrivalLane="906806086#0_1" arrivalPos="73.87" arrivalSpeed="10.66" duration="9.00" routeLength="68.77" waitingTime="0.00" waitingCount="0" stopTime="0.00" timeLoss="2.94" rerouteNo="0" devices="tripinfo_Flow20.5" vType="Car20" speedFactor="1.03" vaporized=""/>
    <tripinfo id="Flow7.5" depart="38.00" departLane="506322857#0_0" departPos="5.10" departSpeed="0.00" departDelay="0.50" arrival="73.00" arrivalLane="420578931#1_0" arrivalPos="35.90" arrivalSpeed="12.24" duration="35.00" routeLength="358.34" waitingTime="0.00" waitingCount="0" stopTime="0.00" timeLoss="6.43" rerouteNo="0" devices="tripinfo_Flow7.5" vType="Car7" speedFactor="0.97" vaporized=""/>
    <tripinfo id="Flow0.3" depart="60.00" departLane="232003903#0_1" departPos="5.10" departSpeed="0.00" departDelay="0.00" arrival="75.00" arrivalLane="593844216#0_1" arrivalPos="108.57" arrivalSpeed="15.51" duration="15.00" routeLength="159.10" waitingTime="0.00" waitingCount="0" stopTime="0.00" timeLoss="4.23" rerouteNo="0" devices="tripinfo_Flow0.3" vType="Car0" speedFactor="1.12" vaporized=""/>
    <tripinfo id="Flow9.5" depart="60.00" departLane="288878926#0_0" departPos="5.10" departSpeed="0.00" departDelay="0.00" arrival="76.00" arrivalLane="593849711#0_1" arrivalPos="24.25" arrivalSpeed="10.92" duration="16.00" routeLength="128.20" waitingTime="0.00" waitingCount="0" stopTime="0.00" timeLoss="4.79" rerouteNo="0" devices="tripinfo_Flow9.5" vType="Car9" speedFactor="1.01" vaporized=""/>
    <tripinfo id="Flow26.8" depart="75.00" departLane="593852343_0" departPos="0.20" departSpeed="0.00" departDelay="0.00" arrival="76.00" arrivalLane="593852343_0" arrivalPos="0.20" arrivalSpeed="1.82" duration="1.00" routeLength="0.00" waitingTime="0.00" waitingCount="0" stopTime="0.00" timeLoss="0.84" rerouteNo="0" devices="tripinfo_Flow26.8" vType="Car26" speedFactor="1.03" vaporized=""/>
    <tripinfo id="Flow23.1" depart="75.00" departLane="314800955_0" departPos="5.10" departSpeed="0.00" departDelay="0.00" arrival="78.00" arrivalLane="314800955_0" arrivalPos="14.48" arrivalSpeed="5.36" duration="3.00" routeLength="9.38" waitingTime="0.00" waitingCount="0" stopTime="0.00" timeLoss="2.31" rerouteNo="0" devices="tripinfo_Flow23.1" vType="Car23" speedFactor="1.15" vaporized=""/>
    <tripinfo id="Flow7.6" depart="45.00" departLane="506322857#0_0" departPos="5.10" departSpeed="0.00" departDelay="0.00" arrival="79.00" arrivalLane="420578931#1_0" arrivalPos="35.90" arrivalSpeed="12.58" duration="34.00" routeLength="358.34" waitingTime="0.00" waitingCount="0" stopTime="0.00" timeLoss="6.57" rerouteNo="0" devices="tripinfo_Flow7.6" vType="Car7" speedFactor="1.00" vaporized=""/>
    <tripinfo id="Flow21.5" depart="75.00" departLane="244450512#0_0" departPos="5.10" departSpeed="0.00" departDelay="0.00" arrival="82.00" arrivalLane="244450512#1_0" arrivalPos="17.86" arrivalSpeed="12.06" duration="7.00" routeLength="39.30" waitingTime="0.00" waitingCount="0" stopTime="0.00" timeLoss="3.50" rerouteNo="0" devices="tripinfo_Flow21.5" vType="Car21" speedFactor="1.02" vaporized=""/>
    <tripinfo id="Flow10.5" depart="75.00" departLane="51362431_1" departPos="5.10" departSpeed="0.00" departDelay="0.00" arrival="83.00" arrivalLane="51362431_1" arrivalPos="69.52" arrivalSpeed="14.70" duration="8.00" routeLength="64.42" waitingTime="0.00" waitingCount="0" stopTime="0.00" timeLoss="3.50" rerouteNo="0" devices="tripinfo_Flow10.5" vType="Car10" speedFactor="1.07" vaporized=""/>
    <tripinfo id="Flow20.6" depart="75.00" departLane="906806086#0_1" departPos="5.10" departSpeed="0.00" departDelay="0.00" arrival="85.00" arrivalLane="906806086#0_1" arrivalPos="73.87" arrivalSpeed="11.45" duration="10.00" routeLength="68.77" waitingTime="0.00" waitingCount="0" stopTime="0.00" timeLoss="3.35" rerouteNo="0" devices="tripinfo_Flow20.6" vType="Car20" speedFactor="1.03" vaporized=""/>
    <tripinfo id="Flow26.9" depart="85.00" departLane="593852343_0" departPos="0.20" departSpeed="0.00" departDelay="0.62" arrival="86.00" arrivalLane="593852343_0" arrivalPos="0.20" arrivalSpeed="2.24" duration="1.00" routeLength="0.00" waitingTime="0.00" waitingCount="0" stopTime="0.00" timeLoss="0.80" rerouteNo="0" devices="tripinfo_Flow26.9" vType="Car26" speedFactor="1.00" vaporized=""/>
    <tripinfo id="Flow7.7" depart="53.00" departLane="506322857#0_0" departPos="5.10" departSpeed="0.00" departDelay="0.50" arrival="90.00" arrivalLane="420578931#1_0" arrivalPos="35.90" arrivalSpeed="11.66" duration="37.00" routeLength="358.34" waitingTime="0.00" waitingCount="0" stopTime="0.00" timeLoss="6.49" rerouteNo="0" devices="tripinfo_Flow7.7" vType="Car7" speedFactor="0.92" vaporized=""/>
    <tripinfo id="Flow11.3" depart="75.00" departLane="593847701_1" departPos="0.20" departSpeed="0.00" departDelay="0.00" arrival="93.00" arrivalLane="E0_0" arrivalPos="145.96" arrivalSpeed="12.84" duration="18.00" routeLength="163.13" waitingTime="0.00" waitingCount="0" stopTime="0.00" timeLoss="4.55" rerouteNo="0" devices="tripinfo_Flow11.3" vType="Car11" speedFactor="0.94" vaporized=""/>
    <tripinfo id="Flow11.0" depart="0.00" departLane="593847701_1" departPos="0.20" departSpeed="0.00" departDelay="0.00" arrival="95.00" arrivalLane="182334378#0_1" arrivalPos="81.74" arrivalSpeed="13.96" duration="95.00" routeLength="266.49" waitingTime="67.00" waitingCount="1" stopTime="0.00" timeLoss="76.06" rerouteNo="0" devices="tripinfo_Flow11.0" vType="Car11" speedFactor="1.08" vaporized=""/>
    <tripinfo id="Flow26.10" depart="94.00" departLane="593852343_0" departPos="0.20" departSpeed="0.00" departDelay="0.25" arrival="95.00" arrivalLane="593852343_0" arrivalPos="0.20" arrivalSpeed="1.84" duration="1.00" routeLength="0.00" waitingTime="0.00" waitingCount="0" stopTime="0.00" timeLoss="0.82" rerouteNo="0" devices="tripinfo_Flow26.10" vType="Car26" speedFactor="0.93" vaporized=""/>
    <tripinfo id="Flow22.4" depart="38.00" departLane="506322840#0_1" departPos="5.10" departSpeed="0.00" departDelay="0.50" arrival="96.00" arrivalLane="263217603#0_1" arrivalPos="25.71" arrivalSpeed="12.38" duration="58.00" routeLength="147.65" waitingTime="35.00" waitingCount="1" stopTime="0.00" timeLoss="44.89" rerouteNo="0" devices="tripinfo_Flow22.4" vType="Car22" speedFactor="1.04" vaporized=""/>
    <tripinfo id="Flow21.6" depart="90.00" departLane="244450512#0_0" departPos="5.10" departSpeed="0.00" departDelay="0.00" arrival="96.00" arrivalLane="244450512#1_0" arrivalPos="17.86" arrivalSpeed="12.21" duration="6.00" routeLength="39.30" waitingTime="0.00" waitingCount="0" stopTime="0.00" timeLoss="2.20" rerouteNo="0" devices="tripinfo_Flow21.6" vType="Car21" speedFactor="0.89" vaporized=""/>
    <tripinfo id="Flow7.8" depart="60.00" departLane="506322857#0_0" departPos="5.10" departSpeed="0.00" departDelay="0.00" arrival="97.00" arrivalLane="420578931#1_0" arrivalPos="35.90" arrivalSpeed="11.61" duration="37.00" routeLength="358.34" waitingTime="0.00" waitingCount="0" stopTime="0.00" timeLoss="6.32" rerouteNo="0" devices="tripinfo_Flow7.8" vType="Car7" speedFactor="0.89" vaporized=""/>