<?xml version="1.0" encoding="UTF-8"?>

<!-- generated on 2026-02-11 17:36:01 by Eclipse SUMO GUI Version 1.24.0
<sumoConfiguration xmlns:xsi="http://www.w3.org/2001/XMLSchema-instance" xsi:noNamespaceSchemaLocation="http://sumo.dlr.de/xsd/sumoConfiguration.xsd">

    <input>
        <net-file value="C:\Users\User\Downloads\System-of-the-control-traffic-light-main\System-of-the-control-traffic-light-main\data\ntut_network_split.net.xml"/>
        <route-files value="C:\Users\User\Downloads\System-of-the-control-traffic-light-main\System-of-the-control-traffic-light-main\data\output.rou.xml"/>
        <additional-files value="C:\Users\User\Downloads\System-of-the-control-traffic-light-main\System-of-the-control-traffic-light-main\data\traffic_light_integrated.add.xml"/>
    </input>

    <output>
        <output-prefix value="ntut_"/>
        <tripinfo-output value="C:\Users\User\Downloads\System-of-the-control-traffic-light-main\System-of-the-control-traffic-light-main\data\tripinfos.xml"/>
        <statistic-output value="C:\Users\User\Downloads\System-of-the-control-traffic-light-main\System-of-the-control-traffic-light-main\data\stats.xml"/>
    </output>

    <processing>
        <ignore-route-errors value="true"/>
        <tls.actuated.jam-threshold value="30"/>
    </processing>

    <routing>
        <device.rerouting.adaptation-steps value="18"/>
        <device.rerouting.adaptation-interval value="10"/>
    </routing>

    <report>
        <verbose value="true"/>
        <duration-log.statistics value="true"/>
        <no-step-log value="true"/>
    </report>

</sumoConfiguration>
-->

<tripinfos xmlns:xsi="http://www.w3.org/2001/XMLSchema-instance" xsi:noNamespaceSchemaLocation="http://sumo.dlr.de/xsd/tripinfo_file.xsd">
</tripinfos>
