<?xml version="1.0" encoding="UTF-8"?>

<!-- generated on 2026-01-17 15:19:46 by Eclipse SUMO sumo Version 1.24.0
<sumoConfiguration xmlns:xsi="http://www.w3.org/2001/XMLSchema-instance" xsi:noNamespaceSchemaLocation="http://sumo.dlr.de/xsd/sumoConfiguration.xsd">

    <input>
        <net-file value="data/real_world.net.xml"/>
        <route-files value="data/output.rou.xml"/>
        <additional-files value="data/real_world.poly.xml"/>
    </input>

    <output>
        <tripinfo-output value="data/tripinfos.xml"/>
        <statistic-output value="data/stats.xml"/>
    </output>

    <time>
        <end value="10"/>
    </time>

    <processing>
        <ignore-route-errors value="true"/>
    </processing>

    <routing>
        <device.rerouting.adaptation-steps value="18"/>
        <device.rerouting.adaptation-interval value="10"/>
    </routing>

    <report>
        <verbose value="true"/>
        <duration-log.disable value="true"/>
        <duration-log.statistics value="true"/>
        <no-step-log value="true"/>
    </report>

</sumoConfiguration>
-->

<tripinfos xmlns:xsi="http://www.w3.org/2001/XMLSchema-instance" xsi:noNamespaceSchemaLocation="http://sumo.dlr.de/xsd/tripinfo-->

<tripinfos xmlns:xsi="http://www.w3.org/2001/XMLSchema-instance" xsi:noNamespaceSchemaLocation="http://sumo.dlr.de/xsd/tripinfo_file.xsd">
</tripinfos>
Lane="-269789739#5_0" arrivalPos="3.11" arrivalSpeed="1.38" duration="1.00" routeLength="0.00" waitingTime="0.00" waitingCount="0" stopTime="0.00" timeLoss="0.90" rerouteNo="0" devices="tripinfo_Flow142.0" vType="Car142" speedFactor="1.15" vaporized=""/>
    <tripinfo id="Flow186.0" depart="0.00" departLane="269789739#5_0" departPos="3.11" departSpeed="0.00" departDelay="0.00" arrival="1.00" arrivalLane="269789739#5_0" arrivalPos="3.11" arrivalSpeed="2.25" duration="1.00" routeLength="0.00" waitingTime="0.00" waitingCount="0" stopTime="0.00" timeLoss="0.86" rerouteNo="0" devices="tripinfo_Flow186.0" vType="Car186" speedFactor="0.91" vaporized=""/>
    <tripinfo id="Flow236.0" depart="0.00" departLane="405980642#5_0" departPos="5.10" departSpeed="0.00" departDelay="0.00" arrival="1.00" arrivalLane="405980642#5_0" arrivalPos="5.70" arrivalSpeed="1.79" duration="1.00" routeLength="0.60" waitingTime="0.00" waitingCount="0" stopTime="0.00" timeLoss="0.83" rerouteNo="0" devices="tripinfo_Flow236.0" vType="Car236" speedFactor="1.01" vaporized=""/>
    <tripinfo id="Flow259.0" depart="0.00" departLane="623877960#0_0" departPos="5.10" departSpeed="0.00" departDelay="0.00" arrival="1.00" arrivalLane="623877960#0_0" arrivalPos="6.54" arrivalSpeed="1.51" duration="1.00" routeLength="1.44" waitingTime="0.00" waitingCount="0" stopTime="0.00" timeLoss="0.89" rerouteNo="0" devices="tripinfo_Flow259.0" vType="Car259" speedFactor="1.03" vaporized=""/>
    <tripinfo id="Flow42.0" depart="0.00" departLane="268564473#0_0" departPos="4.98" departSpeed="0.00" departDelay="0.00" arrival="1.00" arrivalLane="268564473#0_0" arrivalPos="4.98" arrivalSpeed="1.44" duration="1.00" routeLength="0.00" waitingTime="0.00" waitingCount="0" stopTime="0.00" timeLoss="0.89" rerouteNo="0" devices="tripinfo_Flow42.0" vType="Car42" speedFactor="0.97" vaporized=""/>
    <tripinfo id="Flow312.0" depart="1.00" departLane="269789739#5_0" departPos="3.11" departSpeed="0.00" departDelay="1.00" arrival="2.00" arrivalLane="269789739#5_0" arrivalPos="3.11" arrivalSpeed="1.55" duration="1.00" routeLength="0.00" waitingTime="0.00" waitingCount="0" stopTime="0.00" timeLoss="0.90" rerouteNo="0" devices="tripinfo_Flow312.0" vType="Car312" speedFactor="0.96" vaporized=""/>
    <tripinfo id="Flow137.0" depart="0.00" departLane="-329022967#9_0" departPos="0.20" departSpeed="0.00" departDelay="0.00" arrival="3.00" arrivalLane="360855813#0_0" arrivalPos="0.28" arrivalSpeed="4.62" duration="3.00" routeLength="9.05" waitingTime="0.00" waitingCount="0" stopTime="0.00" timeLoss="1.31" rerouteNo="0" devices="tripinfo_Flow137.0" vType="Car137" speedFactor="0.92" vaporized=""/>
    <tripinfo id="Flow216.0" depart="0.00" departLane="300077510#2_0" departPos="0.22" departSpeed="0.00" departDelay="0.00" arrival="3.00" arrivalLane="-300077510#2_0" arrivalPos="0.20" arrivalSpeed="3.40" duration="3.00" routeLength="4.87" waitingTime="0.00" waitingCount="0" stopTime="0.00" timeLoss="1.47" rerouteNo="0" devices="tripinfo_Flow216.0" vType="Car216" speedFactor="1.02" vaporized=""/>
    <tripinfo id="Flow245.0" depart="0.00" departLane="-198874288#0_0" departPos="2.29" departSpeed="0.00" departDelay="0.00" arrival="3.00" arrivalLane="198874288#0_0" arrivalPos="2.29" arrivalSpeed="4.81" duration="3.00" routeLength="6.96" waitingTime="0.00" waitingCount="0" stopTime="0.00" timeLoss="1.69" rerouteNo="0" devices="tripinfo_Flow245.0" vType="Car245" speedFactor="0.92" vaporized=""/>
    <tripinfo id="Flow112.0" depart="0.00" departLane="-159980284#1_0" departPos="2.31" departSpeed="0.00" departDelay="0.00" arrival="4.00" arrivalLane="159980284#1_0" arrivalPos="2.31" arrivalSpeed="5.64" duration="4.00" routeLength="13.48" waitingTime="0.00" waitingCount="0" stopTime="0.00" timeLoss="2.07" rerouteNo="0" devices="tripinfo_Flow112.0" vType="Car112" speedFactor="1.09" vaporized=""/>
    <tripinfo id="Flow352.0" depart="0.00" departLane="-229844763#0_0" departPos="4.78" departSpeed="0.00" departDelay="0.00" arrival="4.00" arrivalLane="229844763#0_0" arrivalPos="4.78" arrivalSpeed="4.04" duration="4.00" routeLength="9.45" waitingTime="0.00" waitingCount="0" stopTime="0.00" timeLoss="2.42" rerouteNo="0" devices="tripinfo_Flow352.0" vType="Car352" speedFactor="0.98" vaporized=""/>
    <tripinfo id="Flow94.0" depart="0.00" departLane="-289004415#10_0" departPos="0.25" departSpeed="0.00" departDelay="0.00" arrival="4.00" arrivalLane="-289004415#9_0" arrivalPos="1.07" arrivalSpeed="7.17" duration="4.00" routeLength="15.47" waitingTime="0.00" waitingCount="0" stopTime="0.00" timeLoss="2.82" rerouteNo="0" devices="tripinfo_Flow94.0" vType="Car94" speedFactor="0.88" vaporized=""/>
    <tripinfo id="Flow142.1" depart="3.00" departLane="-269789739#5_0" departPos="3.11" departSpeed="0.00" departDelay="1.04" arrival="4.00" arrivalLane="-269789739#5_0" arrivalPos="3.11" arrivalSpeed="1.85" duration="1.00" routeLength="0.00" waitingTime="0.00" waitingCount="0" stopTime="0.00" timeLoss="0.87" rerouteNo="0" devices="tripinfo_Flow142.1" vType="Car142" speedFactor="0.97" vaporized=""/>
    <tripinfo id="Flow186.1" depart="3.00" departLane="269789739#5_0" departPos="3.11" departSpeed="0.00" departDelay="0.76" arrival="4.00" arrivalLane="269789739#5_0" arrivalPos="3.11" arrivalSpeed="1.64" duration="1.00" routeLength="0.00" waitingTime="0.00" waitingCount="0" stopTime="0.00" timeLoss="0.90" rerouteNo="0" devices="tripinfo_Flow186.1" vType="Car186" speedFactor="1.19" vaporized=""/>
    <tripinfo id="Flow259.1" depart="4.00" departLane="623877960#0_0" departPos="5.10" departSpeed="0.00" departDelay="0.81" arrival="5.00" arrivalLane="623877960#0_0" arrivalPos="6.54" arrivalSpeed="2.51" duration="1.00" routeLength="1.44" waitingTime="0.00" waitingCount="0" stopTime="0.00" timeLoss="0.82" rerouteNo="0" devices="tripinfo_Flow259.1" vType="Car259" speedFactor="0.89" vaporized=""/>
    <tripinfo id="Flow142.2" depart="4.00" departLane="-269789739#5_0" departPos="3.11" departSpeed="0.00" departDelay="0.08" arrival="5.00" arrivalLane="-269789739#5_0" arrivalPos="3.11" arrivalSpeed="2.20" duration="1.00" routeLength="0.00" waitingTime="0.00" waitingCount="0" stopTime="0.00" timeLoss="0.85" rerouteNo="0" devices="tripinfo_Flow142.2" vType="Car142" speedFactor="1.10" vaporized=""/>
    <tripinfo id="Flow218.0" depart="3.00" departLane="300077510#2_0" departPos="0.22" departSpeed="0.00" departDelay="3.00" arrival="6.00" arrivalLane="-300077510#2_0" arrivalPos="0.20" arrivalSpeed="2.51" duration="3.00" routeLength="4.87" waitingTime="0.00" waitingCount="0" stopTime="0.00" timeLoss="1.31" rerouteNo="0" devices="tripinfo_Flow218.0" vType="Car218" speedFactor="0.83" vaporized=""/>
    <tripinfo id="Flow236.1" depart="5.00" departLane="405980642#5_0" departPos="5.10" departSpeed="0.00" departDelay="0.95" arrival="6.00" arrivalLane="405980642#5_0" arrivalPos="5.70" arrivalSpeed="1.49" duration="1.00" routeLength="0.60" waitingTime="0.00" waitingCount="0" stopTime="0.00" timeLoss="0.85" rerouteNo="0" devices="tripinfo_Flow236.1" vType="Car236" speedFactor="1.11" vaporized=""/>
    <tripinfo id="Flow42.1" depart="5.00" departLane="268564473#0_0" departPos="4.98" departSpeed="0.00" departDelay="0.71" arrival="6.00" arrivalLane="268564473#0_0" arrivalPos="4.98" arrivalSpeed="1.89" duration="1.00" routeLength="0.00" waitingTime="0.00" waitingCount="0" stopTime="0.00" timeLoss="0.87" rerouteNo="0" devices="tripinfo_Flow42.1" vType="Car42" speedFactor="1.02" vaporized=""/>
    <tripinfo id="Flow186.2" depart="5.00" departLane="269789739#5_0" departPos="3.11" departSpeed="0.00" departDelay="0.52" arrival="6.00" arrivalLane="269789739#5_0" arrivalPos="3.11" arrivalSpeed="1.75" duration="1.00" routeLength="0.00" waitingTime="0.00" waitingCount="0" stopTime="0.00" timeLoss="0.89" rerouteNo="0" devices="tripinfo_Flow186.2" vType="Car186" speedFactor="1.07" vaporized=""/>
    <tripinfo id="Flow231.0" depart="0.00" departLane="-25715404#0_0" departPos="5.10" departSpeed="0.00" departDelay="0.00" arrival="7.00" arrivalLane="-25715404#0_0" arrivalPos="43.91" arrivalSpeed="10.70" duration="7.00" routeLength="38.81" waitingTime="0.00" waitingCount="0" stopTime="0.00" timeLoss="2.82" rerouteNo="0" devices="tripinfo_Flow231.0" vType="Car231" speedFactor="0.96" vaporized=""/>
    <tripinfo id="Flow312.1" depart="6.00" departLane="269789739#5_0" departPos="3.11" departSpeed="0.00" departDelay="0.12" arrival="7.00" arrivalLane="269789739#5_0" arrivalPos="3.11" arrivalSpeed="1.70" duration="1.00" routeLength="0.00" waitingTime="0.00" waitingCount="0" stopTime="0.00" timeLoss="0.89" rerouteNo="0" devices="tripinfo_Flow312.1" vType="Car312" speedFactor="1.01" vaporized=""/>
    <tripinfo id="Flow166.0" depart="0.00" departLane="-407513573#5_0" departPos="0.20" departSpeed="0.00" departDelay="0.00" arrival="8.00" arrivalLane="51423093#10_0" arrivalPos="46.93" arrivalSpeed="13.06" duration="8.00" routeLength="60.36" waitingTime="0.00" waitingCount="0" stopTime="0.00" timeLoss="2.68" rerouteNo="0" devices="tripinfo_Flow166.0" vType="Car166" speedFactor="1.17" vaporized=""/>
    <tripinfo id="Flow253.0" depart="3.00" departLane="-159980284#1_0" departPos="2.31" departSpeed="0.00" departDelay="3.00" arrival="8.00" arrivalLane="159980284#1_0" arrivalPos="2.31" arrivalSpeed="5.59" duration="5.00" routeLength="13.48" waitingTime="0.00" waitingCount="0" stopTime="0.00" timeLoss="2.65" rerouteNo="0" devices="tripinfo_Flow253.0" vType="Car253" speedFactor="1.10" vaporized=""/>
    <tripinfo id="Flow273.0" depart="0.00" departLane="329022967#4_0" departPos="5.10" departSpeed="0.00" departDelay="0.00" arrival="8.00" arrivalLane="309194440#0_0" arrivalPos="0.20" arrivalSpeed="5.70" duration="8.00" routeLength="48.62" waitingTime="0.00" waitingCount="0" stopTime="0.00" timeLoss="4.12" rerouteNo="0" devices="tripinfo_Flow273.0" vType="Car273" speedFactor="1.02" vaporized=""/>
    <tripinfo id="Flow352.1" depart="3.00" departLane="-229844763#0_0" departPos="4.78" departSpeed="0.00" departDelay="1.04" arrival="8.00" arrivalLane="229844763#0_0" arrivalPos="4.78" arrivalSpeed="4.78" duration="5.00" routeLength="9.45" waitingTime="1.00" waitingCount="1" stopTime="0.00" timeLoss="3.31" rerouteNo="0" devices="tripinfo_Flow352.1" vType="Car352" speedFactor="0.87" vaporized=""/>
    <tripinfo id="Flow259.2" depart="7.00" departLane="623877960#0_0" departPos="5.10" departSpeed="0.00" departDelay="0.62" arrival="8.00" arrivalLane="623877960#0_0" arrivalPos="6.54" arrivalSpeed="2.03" duration="1.00" routeLength="1.44" waitingTime="0.00" waitingCount="0" stopTime="0.00" timeLoss="0.86" rerouteNo="0" devices="tripinfo_Flow259.2" vType="Car259" speedFactor="0.99" vaporized=""/>
    <tripinfo id="Flow186.3" depart="7.00" departLane="269789739#5_0" departPos="3.11" departSpeed="0.00" departDelay="0.29" arrival="8.00" arrivalLane="269789739#5_0" arrivalPos="3.11" arrivalSpeed="2.56" duration="1.00" routeLength="0.00" waitingTime="0.00" waitingCount="0" stopTime="0.00" timeLoss="0.85" rerouteNo="0" devices="tripinfo_Flow186.3" vType="Car186" speedFactor="0.90" vaporized=""/>
    <tripinfo id="Flow231.1" depart="3.00" departLane="-25715404#0_0" departPos="5.10" departSpeed="0.00" departDelay="0.25" arrival="9.00" arrivalLane="-25715404#0_0" arrivalPos="43.91" arrivalSpeed="11.09" duration="6.00" routeLength="38.81" waitingTime="0.00" waitingCount="0" stopTime="0.00" timeLoss="2.35" rerouteNo="0" devices="tripinfo_Flow231.1" vType="Car231" speedFactor="1.07" vaporized=""/>
    <tripinfo id="Flow94.1" depart="5.00" departLane="-289004415#10_0" departPos="0.25" departSpeed="0.00" departDelay="0.77" arrival="9.00" arrivalLane="-289004415#9_0" arrivalPos="1.07" arrivalSpeed="8.87" duration="4.00" routeLength="15.47" waitingTime="0.00" waitingCount="0" stopTime="0.00" timeLoss="2.50" rerouteNo="0" devices="tripinfo_Flow94.1" vType="Car94" speedFactor="1.07" vaporized=""/>
    <tripinfo id="Flow142.3" depart="8.00" departLane="-269789739#5_0" departPos="3.11" departSpeed="0.00" departDelay="2.12" arrival="9.00" arrivalLane="-269789739#5_0" arrivalPos="3.11" arrivalSpeed="1.31" duration="1.00" routeLength="0.00" waitingTime="0.00" waitingCount="0" stopTime="0.00" timeLoss="0.91" rerouteNo="0" devices="tripinfo_Flow142.3" vType="Car142" speedFactor="0.92" vaporized=""/>
</tripinfos>
