<?xml version="1.0" encoding="UTF-8"?>

<!-- generated on 2026-01-21 22:45:31 by Eclipse SUMO GUI Version 1.24.0
<sumoConfiguration xmlns:xsi="http://www.w3.org/2001/XMLSchema-instance" xsi:noNamespaceSchemaLocation="http://sumo.dlr.de/xsd/sumoConfiguration.xsd">

    <input>
        <net-file value="data/real_world/realworld_network.net.xml"/>
        <route-files value="data/real_world/realworld_routes.rou.xml"/>
        <additional-files value="data/real_world/realworld_tls.add.xml,data/real_world/realworld_poly.poly.xml"/>
    </input>

    <output>
        <output-prefix value="realworld_"/>
        <tripinfo-output value="data/real_world/tripinfos.xml"/>
        <statistic-output value="data/real_world/stats.xml"/>
    </output>

    <processing>
        <ignore-route-errors value="true"/>
    </processing>

    <routing>
        <device.rerouting.adaptation-steps value="18"/>
        <device.rerouting.adaptation-interval value="10"/>
    </routing>

    <report>
        <verbose value="true"/>
        <duration-log.statistics value="true"/>
        <no-step-log value="true"/>
    </report>

    <traci_server>
        <remote-port value="52866"/>
    </traci_server>

    <gui_only>
        <start value="true"/>
    </gui_only>

</sumoConfiguration>
-->

<tripinfos xmlns:xsi="http://www.w3.org/2001/XMLSchema-instance" xsi:noNamespaceSchemaLocation="http://sumo.dlr.de/xsd/tripinfo_file.xsd">
    <tripinfo id="Flow142.0" depart="0.00" departLane="-269789739#5_0" departPos="3.11" departSpeed="0.00" departDelay="0.00" arrival="1.00" arrivalLane="-269789739#5_0" arrivalPos="3.11" arrivalSpeed="1.38" duration="1.00" routeLength="0.00" waitingTime="0.00" waitingCount="0" stopTime="0.00" timeLoss="0.90" rerouteNo="0" devices="tripinfo_Flow142.0" vType="Car142" speedFactor="1.15" vaporized=""/>
    <tripinfo id="Flow186.0" depart="0.00" departLane="269789739#5_0" departPos="3.11" departSpeed="0.00" departDelay="0.00" arrival="1.00" arrivalLane="269789739#5_0" arrivalPos="3.11" arrivalSpeed="2.25" duration="1.00" routeLength="0.00" waitingTime="0.00" waitingCount="0" stopTime="0.00" timeLoss="0.86" rerouteNo="0" devices="tripinfo_Flow186.0" vType="Car186" speedFactor="0.91" vaporized=""/>
    <tripinfo id="Flow236.0" depart="0.00" departLane="405980642#5_0" departPos="5.10" departSpeed="0.00" departDelay="0.00" arrival="1.00" arrivalLane="405980642#5_0" arrivalPos="5.70" arrivalSpeed="1.79" duration="1.00" routeLength="0.60" waitingTime="0.00" waitingCount="0" stopTime="0.00" timeLoss="0.83" rerouteNo="0" devices="tripinfo_Flow236.0" vType="Car236" speedFactor="1.01" vaporized=""/>
    <tripinfo id="Flow259.0" depart="0.00" departLane="623877960#0_0" departPos="5.10" departSpeed="0.00" departDelay="0.00" arrival="1.00" arrivalLane="623877960#0_0" arrivalPos="6.54" arrivalSpeed="1.51" duration="1.00" routeLength="1.44" waitingTime="0.00" waitingCount="0" stopTime="0.00" timeLoss="0.89" rerouteNo="0" devices="tripinfo_Flow259.0" vType="Car259" speedFactor="1.03" vaporized=""/>
    <tripinfo id="Flow42.0" depart="0.00" departLane="268564473#0_0" departPos="4.98" departSpeed="0.00" departDelay="0.00" arrival="1.00" arrivalLane="268564473#0_0" arrivalPos="4.98" arrivalSpeed="1.44" duration="1.00" routeLength="0.00" waitingTime="0.00" waitingCount="0" stopTime="0.00" timeLoss="0.89" rerouteNo="0" devices="tripinfo_Flow42.0" vType="Car42" speedFactor="0.97" vaporized=""/>
    <tripinfo id="Flow312.0" depart="1.00" departLane="269789739#5_0" departPos="3.11" departSpeed="0.00" departDelay="1.00" arrival="2.00" arrivalLane="269789739#5_0" arrivalPos="3.11" arrivalSpeed="1.55" duration="1.00" routeLength="0.00" waitingTime="0.00" waitingCount="0" stopTime="0.00" timeLoss="0.90" rerouteNo="0" devices="tripinfo_Flow312.0" vType="Car312" speedFactor="0.96" vaporized=""/>
    <tripinfo id="Flow137.0" depart="0.00" departLane="-329022967#9_0" departPos="0.20" departSpeed="0.00" departDelay="0.00" arrival="3.00" arrivalLane="360855813#0_0" arrivalPos="0.28" arrivalSpeed="4.62" duration="3.00" routeLength="9.05" waitingTime="0.00" waitingCount="0" stopTime="0.00" timeLoss="1.31" rerouteNo="0" devices="tripinfo_Flow137.0" vType="Car137" speedFactor="0.92" vaporized=""/>
    <tripinfo id="Flow216.0" depart="0.00" departLane="300077510#2_0" departPos="0.22" departSpeed="0.00" departDelay="0.00" arrival="3.00" arrivalLane="-300077510#2_0" arrivalPos="0.20" arrivalSpeed="3.40" duration="3.00" routeLength="4.87" waitingTime="0.00" waitingCount="0" stopTime="0.00" timeLoss="1.47" rerouteNo="0" devices="tripinfo_Flow216.0" vType="Car216" speedFactor="1.02" vaporized=""/>
    <tripinfo id="Flow245.0" depart="0.00" departLane="-198874288#0_0" departPos="2.29" departSpeed="0.00" departDelay="0.00" arrival="3.00" arrivalLane="198874288#0_0" arrivalPos="2.29" arrivalSpeed="4.81" duration="3.00" routeLength="6.96" waitingTime="0.00" waitingCount="0" stopTime="0.00" timeLoss="1.69" rerouteNo="0" devices="tripinfo_Flow245.0" vType="Car245" speedFactor="0.92" vaporized=""/>
    <tripinfo id="Flow112.0" depart="0.00" departLane="-159980284#1_0" departPos="2.31" departSpeed="0.00" departDelay="0.00" arrival="4.00" arrivalLane="159980284#1_0" arrivalPos="2.31" arrivalSpeed="5.64" duration="4.00" routeLength="13.48" waitingTime="0.00" waitingCount="0" stopTime="0.00" timeLoss="2.07" rerouteNo="0" devices="tripinfo_Flow112.0" vType="Car112" speedFactor="1.09" vaporized=""/>
    <tripinfo id="Flow352.0" depart="0.00" departLane="-229844763#0_0" departPos="4.78" departSpeed="0.00" departDelay="0.00" arrival="4.00" arrivalLane="229844763#0_0" arrivalPos="4.78" arrivalSpeed="4.04" duration="4.00" routeLength="9.45" waitingTime="0.00" waitingCount="0" stopTime="0.00" timeLoss="2.42" rerouteNo="0" devices="tripinfo_Flow352.0" vType="Car352" speedFactor="0.98" vaporized=""/>
    <tripinfo id="Flow94.0" depart="0.00" departLane="-289004415#10_0" departPos="0.25" departSpeed="0.00" departDelay="0.00" arrival="4.00" arrivalLane="-289004415#9_0" arrivalPos="1.07" arrivalSpeed="7.17" duration="4.00" routeLength="15.47" waitingTime="0.00" waitingCount="0" stopTime="0.00" timeLoss="2.82" rerouteNo="0" devices="tripinfo_Flow94.0" vType="Car94" speedFactor="0.88" vaporized=""/>
    <tripinfo id="Flow142.1" depart="3.00" departLane="-269789739#5_0" departPos="3.11" departSpeed="0.00" departDelay="1.04" arrival="4.00" arrivalLane="-269789739#5_0" arrivalPos="3.11" arrivalSpeed="1.85" duration="1.00" routeLength="0.00" waitingTime="0.00" waitingCount="0" stopTime="0.00" timeLoss="0.87" rerouteNo="0" devices="tripinfo_Flow142.1" vType="Car142" speedFactor="0.97" vaporized=""/>
    <tripinfo id="Flow186.1" depart="3.00" departLane="269789739#5_0" departPos="3.11" departSpeed="0.00" departDelay="0.76" arrival="4.00" arrivalLane="269789739#5_0" arrivalPos="3.11" arrivalSpeed="1.64" duration="1.00" routeLength="0.00" waitingTime="0.00" waitingCount="0" stopTime="0.00" timeLoss="0.90" rerouteNo="0" devices="tripinfo_Flow186.1" vType="Car186" speedFactor="1.19" vaporized=""/>
    <tripinfo id="Flow259.1" depart="4.00" departLane="623877960#0_0" departPos="5.10" departSpeed="0.00" departDelay="0.81" arrival="5.00" arrivalLane="623877960#0_0" arrivalPos="6.54" arrivalSpeed="2.51" duration="1.00" routeLength="1.44" waitingTime="0.00" waitingCount="0" stopTime="0.00" timeLoss="0.82" rerouteNo="0" devices="tripinfo_Flow259.1" vType="Car259" speedFactor="0.89" vaporized=""/>
    <tripinfo id="Flow142.2" depart="4.00" departLane="-269789739#5_0" departPos="3.11" departSpeed="0.00" departDelay="0.08" arrival="5.00" arrivalLane="-269789739#5_0" arrivalPos="3.11" arrivalSpeed="2.20" duration="1.00" routeLength="0.00" waitingTime="0.00" waitingCount="0" stopTime="0.00" timeLoss="0.85" rerouteNo="0" devices="tripinfo_Flow142.2" vType="Car142" speedFactor="1.10" vaporized=""/>
    <tripinfo id="Flow218.0" depart="3.00" departLane="300077510#2_0" departPos="0.22" departSpeed="0.00" departDelay="3.00" arrival="6.00" arrivalLane="-300077510#2_0" arrivalPos="0.20" arrivalSpeed="2.51" duration="3.00" routeLength="4.87" waitingTime="0.00" waitingCount="0" stopTime="0.00" timeLoss="1.31" rerouteNo="0" devices="tripinfo_Flow218.0" vType="Car218" speedFactor="0.83" vaporized=""/>
    <tripinfo id="Flow236.1" depart="5.00" departLane="405980642#5_0" departPos="5.10" departSpeed="0.00" departDelay="0.95" arrival="6.00" arrivalLane="405980642#5_0" arrivalPos="5.70" arrivalSpeed="1.49" duration="1.00" routeLength="0.60" waitingTime="0.00" waitingCount="0" stopTime="0.00" timeLoss="0.85" rerouteNo="0" devices="tripinfo_Flow236.1" vType="Car236" speedFactor="1.11" vaporized=""/>
    <tripinfo id="Flow42.1" depart="5.00" departLane="268564473#0_0" departPos="4.98" departSpeed="0.00" departDelay="0.71" arrival="6.00" arrivalLane="268564473#0_0" arrivalPos="4.98" arrivalSpeed="1.89" duration="1.00" routeLength="0.00" waitingTime="0.00" waitingCount="0" stopTime="0.00" timeLoss="0.87" rerouteNo="0" devices="tripinfo_Flow42.1" vType="Car42" speedFactor="1.02" vaporized=""/>
    <tripinfo id="Flow186.2" depart="5.00" departLane="269789739#5_0" departPos="3.11" departSpeed="0.00" departDelay="0.52" arrival="6.00" arrivalLane="269789739#5_0" arrivalPos="3.11" arrivalSpeed="1.75" duration="1.00" routeLength="0.00" waitingTime="0.00" waitingCount="0" stopTime="0.00" timeLoss="0.89" rerouteNo="0" devices="tripinfo_Flow186.2" vType="Car186" speedFactor="1.07" vaporized=""/>
    <tripinfo id="Flow231.0" depart="0.00" departLane="-25715404#0_0" departPos="5.10" departSpeed="0.00" departDelay="0.00" arrival="7.00" arrivalLane="-25715404#0_0" arrivalPos="43.91" arrivalSpeed="10.70" duration="7.00" routeLength="38.81" waitingTime="0.00" waitingCount="0" stopTime="0.00" timeLoss="2.82" rerouteNo="0" devices="tripinfo_Flow231.0" vType="Car231" speedFactor="0.96" vaporized=""/>
    <tripinfo id="Flow312.1" depart="6.00" departLane="269789739#5_0" departPos="3.11" departSpeed="0.00" departDelay="0.12" arrival="7.00" arrivalLane="269789739#5_0" arrivalPos="3.11" arrivalSpeed="1.70" duration="1.00" routeLength="0.00" waitingTime="0.00" waitingCount="0" stopTime="0.00" timeLoss="0.89" rerouteNo="0" devices="tripinfo_Flow312.1" vType="Car312" speedFactor="1.01" vaporized=""/>
    <tripinfo id="Flow166.0" depart="0.00" departLane="-407513573#5_0" departPos="0.20" departSpeed="0.00" departDelay="0.00" arrival="8.00" arrivalLane="51423093#10_0" arrivalPos="46.93" arrivalSpeed="13.06" duration="8.00" routeLength="60.36" waitingTime="0.00" waitingCount="0" stopTime="0.00" timeLoss="2.68" rerouteNo="0" devices="tripinfo_Flow166.0" vType="Car166" speedFactor="1.17" vaporized=""/>
    <tripinfo id="Flow253.0" depart="3.00" departLane="-159980284#1_0" departPos="2.31" departSpeed="0.00" departDelay="3.00" arrival="8.00" arrivalLane="159980284#1_0" arrivalPos="2.31" arrivalSpeed="5.59" duration="5.00" routeLength="13.48" waitingTime="0.00" waitingCount="0" stopTime="0.00" timeLoss="2.65" rerouteNo="0" devices="tripinfo_Flow253.0" vType="Car253" speedFactor="1.10" vaporized=""/>
    <tripinfo id="Flow273.0" depart="0.00" departLane="329022967#4_0" departPos="5.10" departSpeed="0.00" departDelay="0.00" arrival="8.00" arrivalLane="309194440#0_0" arrivalPos="0.20" arrivalSpeed="5.70" duration="8.00" routeLength="48.62" waitingTime="0.00" waitingCount="0" stopTime="0.00" timeLoss="4.12" rerouteNo="0" devices="tripinfo_Flow273.0" vType="Car273" speedFactor="1.02" vaporized=""/>
    <tripinfo id="Flow352.1" depart="3.00" departLane="-229844763#0_0" departPos="4.78" departSpeed="0.00" departDelay="1.04" arrival="8.00" arrivalLane="229844763#0_0" arrivalPos="4.78" arrivalSpeed="4.78" duration="5.00" routeLength="9.45" waitingTime="1.00" waitingCount="1" stopTime="0.00" timeLoss="3.31" rerouteNo="0" devices="tripinfo_Flow352.1" vType="Car352" speedFactor="0.87" vaporized=""/>
    <tripinfo id="Flow259.2" depart="7.00" departLane="623877960#0_0" departPos="5.10" departSpeed="0.00" departDelay="0.62" arrival="8.00" arrivalLane="623877960#0_0" arrivalPos="6.54" arrivalSpeed="2.03" duration="1.00" routeLength="1.44" waitingTime="0.00" waitingCount="0" stopTime="0.00" timeLoss="0.86" rerouteNo="0" devices="tripinfo_Flow259.2" vType="Car259" speedFactor="0.99" vaporized=""/>
    <tripinfo id="Flow186.3" depart="7.00" departLane="269789739#5_0" departPos="3.11" departSpeed="0.00" departDelay="0.29" arrival="8.00" arrivalLane="269789739#5_0" arrivalPos="3.11" arrivalSpeed="2.56" duration="1.00" routeLength="0.00" waitingTime="0.00" waitingCount="0" stopTime="0.00" timeLoss="0.85" rerouteNo="0" devices="tripinfo_Flow186.3" vType="Car186" speedFactor="0.90" vaporized=""/>
    <tripinfo id="Flow231.1" depart="3.00" departLane="-25715404#0_0" departPos="5.10" departSpeed="0.00" departDelay="0.25" arrival="9.00" arrivalLane="-25715404#0_0" arrivalPos="43.91" arrivalSpeed="11.09" duration="6.00" routeLength="38.81" waitingTime="0.00" waitingCount="0" stopTime="0.00" timeLoss="2.35" rerouteNo="0" devices="tripinfo_Flow231.1" vType="Car231" speedFactor="1.07" vaporized=""/>
    <tripinfo id="Flow94.1" depart="5.00" departLane="-289004415#10_0" departPos="0.25" departSpeed="0.00" departDelay="0.77" arrival="9.00" arrivalLane="-289004415#9_0" arrivalPos="1.07" arrivalSpeed="8.87" duration="4.00" routeLength="15.47" waitingTime="0.00" waitingCount="0" stopTime="0.00" timeLoss="2.50" rerouteNo="0" devices="tripinfo_Flow94.1" vType="Car94" speedFactor="1.07" vaporized=""/>
    <tripinfo id="Flow142.3" depart="8.00" departLane="-269789739#5_0" departPos="3.11" departSpeed="0.00" departDelay="2.12" arrival="9.00" arrivalLane="-269789739#5_0" arrivalPos="3.11" arrivalSpeed="1.31" duration="1.00" routeLength="0.00" waitingTime="0.00" waitingCount="0" stopTime="0.00" timeLoss="0.91" rerouteNo="0" devices="tripinfo_Flow142.3" vType="Car142" speedFactor="0.92" vaporized=""/>
    <tripinfo id="Flow106.0" depart="0.00" departLane="336182122#5_0" departPos="5.10" departSpeed="0.00" departDelay="0.00" arrival="10.00" arrivalLane="-269505245#5_0" arrivalPos="4.30" arrivalSpeed="10.73" duration="10.00" routeLength="54.57" waitingTime="0.00" waitingCount="0" stopTime="0.00" timeLoss="5.14" rerouteNo="0" devices="tripinfo_Flow106.0" vType="Car106" speedFactor="0.83" vaporized=""/>
    <tripinfo id="Flow279.0" depart="0.00" departLane="515156287#5_0" departPos="4.29" departSpeed="0.00" departDelay="0.00" arrival="10.00" arrivalLane="515156296#0_0" arrivalPos="5.49" arrivalSpeed="6.99" duration="10.00" routeLength="48.34" waitingTime="0.00" waitingCount="0" stopTime="0.00" timeLoss="4.17" rerouteNo="0" devices="tripinfo_Flow279.0" vType="Car279" speedFactor="1.13" vaporized=""/>
    <tripinfo id="Flow310.0" depart="5.00" departLane="25715401#2_0" departPos="3.54" departSpeed="0.00" departDelay="5.00" arrival="10.00" arrivalLane="-25715401#2_0" arrivalPos="3.54" arrivalSpeed="2.61" duration="5.00" routeLength="8.21" waitingTime="1.00" waitingCount="1" stopTime="0.00" timeLoss="2.14" rerouteNo="0" devices="tripinfo_Flow310.0" vType="Car310" speedFactor="0.89" vaporized=""/>
    <tripinfo id="Flow331.0" depart="0.00" departLane="229844763#1_0" departPos="5.10" departSpeed="0.00" departDelay="0.00" arrival="10.00" arrivalLane="229844763#1_0" arrivalPos="96.41" arrivalSpeed="12.27" duration="10.00" routeLength="91.31" waitingTime="0.00" waitingCount="0" stopTime="0.00" timeLoss="2.59" rerouteNo="0" devices="tripinfo_Flow331.0" vType="Car331" speedFactor="0.93" vaporized=""/>
    <tripinfo id="Flow142.4" depart="9.00" departLane="-269789739#5_0" departPos="3.11" departSpeed="0.00" departDelay="1.16" arrival="10.00" arrivalLane="-269789739#5_0" arrivalPos="3.11" arrivalSpeed="2.46" duration="1.00" routeLength="0.00" waitingTime="0.00" waitingCount="0" stopTime="0.00" timeLoss="0.83" rerouteNo="0" devices="tripinfo_Flow142.4" vType="Car142" speedFactor="1.00" vaporized=""/>
    <tripinfo id="Flow236.2" depart="9.00" departLane="405980642#5_0" departPos="5.10" departSpeed="0.00" departDelay="0.89" arrival="10.00" arrivalLane="405980642#5_0" arrivalPos="5.70" arrivalSpeed="2.51" duration="1.00" routeLength="0.60" waitingTime="0.00" waitingCount="0" stopTime="0.00" timeLoss="0.75" rerouteNo="0" devices="tripinfo_Flow236.2" vType="Car236" speedFactor="0.95" vaporized=""/>
    <tripinfo id="Flow42.2" depart="9.00" departLane="268564473#0_0" departPos="4.98" departSpeed="0.00" departDelay="0.43" arrival="10.00" arrivalLane="268564473#0_0" arrivalPos="4.98" arrivalSpeed="1.46" duration="1.00" routeLength="0.00" waitingTime="0.00" waitingCount="0" stopTime="0.00" timeLoss="0.90" rerouteNo="0" devices="tripinfo_Flow42.2" vType="Car42" speedFactor="1.00" vaporized=""/>
    <tripinfo id="Flow186.4" depart="9.00" departLane="269789739#5_0" departPos="3.11" departSpeed="0.00" departDelay="0.05" arrival="10.00" arrivalLane="269789739#5_0" arrivalPos="3.11" arrivalSpeed="2.19" duration="1.00" routeLength="0.00" waitingTime="0.00" waitingCount="0" stopTime="0.00" timeLoss="0.87" rerouteNo="0" devices="tripinfo_Flow186.4" vType="Car186" speedFactor="1.09" vaporized=""/>
    <tripinfo id="Flow134.0" depart="0.00" departLane="49795875#4_0" departPos="5.10" departSpeed="0.00" departDelay="0.00" arrival="11.00" arrivalLane="49795875#4_0" arrivalPos="108.04" arrivalSpeed="13.54" duration="11.00" routeLength="102.94" waitingTime="0.00" waitingCount="0" stopTime="0.00" timeLoss="3.19" rerouteNo="0" devices="tripinfo_Flow134.0" vType="Car134" speedFactor="0.87" vaporized=""/>
    <tripinfo id="Flow152.0" depart="0.00" departLane="50823701#1_0" departPos="5.10" departSpeed="0.00" departDelay="0.00" arrival="11.00" arrivalLane="50823701#2_0" arrivalPos="90.48" arrivalSpeed="11.59" duration="11.00" routeLength="96.24" waitingTime="0.00" waitingCount="0" stopTime="0.00" timeLoss="2.75" rerouteNo="0" devices="tripinfo_Flow152.0" vType="Car152" speedFactor="0.90" vaporized=""/>
    <tripinfo id="Flow235.0" depart="0.00" departLane="297213521#2_0" departPos="5.10" departSpeed="0.00" departDelay="0.00" arrival="11.00" arrivalLane="506322842#2_0" arrivalPos="3.59" arrivalSpeed="14.13" duration="11.00" routeLength="106.51" waitingTime="0.00" waitingCount="0" stopTime="0.00" timeLoss="3.33" rerouteNo="0" devices="tripinfo_Flow235.0" vType="Car235" speedFactor="1.07" vaporized=""/>
    <tripinfo id="Flow68.0" depart="10.00" departLane="329022967#0_0" departPos="4.18" departSpeed="0.00" departDelay="10.00" arrival="11.00" arrivalLane="329022967#0_0" arrivalPos="4.18" arrivalSpeed="2.23" duration="1.00" routeLength="0.00" waitingTime="0.00" waitingCount="0" stopTime="0.00" timeLoss="0.83" rerouteNo="0" devices="tripinfo_Flow68.0" vType="Car68" speedFactor="0.91" vaporized=""/>
    <tripinfo id="Flow253.1" depart="7.00" departLane="-159980284#1_0" departPos="2.31" departSpeed="0.00" departDelay="4.69" arrival="11.00" arrivalLane="159980284#1_0" arrivalPos="2.31" arrivalSpeed="5.39" duration="4.00" routeLength="13.48" waitingTime="0.00" waitingCount="0" stopTime="0.00" timeLoss="2.22" rerouteNo="0" devices="tripinfo_Flow253.1" vType="Car253" speedFactor="1.09" vaporized=""/>
    <tripinfo id="Flow218.1" depart="8.00" departLane="300077510#2_0" departPos="0.22" departSpeed="0.00" departDelay="0.11" arrival="11.00" arrivalLane="-300077510#2_0" arrivalPos="0.20" arrivalSpeed="3.11" duration="3.00" routeLength="4.87" waitingTime="0.00" waitingCount="0" stopTime="0.00" timeLoss="1.58" rerouteNo="0" devices="tripinfo_Flow218.1" vType="Car218" speedFactor="1.08" vaporized=""/>
    <tripinfo id="Flow259.3" depart="10.00" departLane="623877960#0_0" departPos="5.10" departSpeed="0.00" departDelay="0.43" arrival="11.00" arrivalLane="623877960#0_0" arrivalPos="6.54" arrivalSpeed="2.26" duration="1.00" routeLength="1.44" waitingTime="0.00" waitingCount="0" stopTime="0.00" timeLoss="0.84" rerouteNo="0" devices="tripinfo_Flow259.3" vType="Car259" speedFactor="1.01" vaporized=""/>
    <tripinfo id="Flow353.0" depart="0.00" departLane="269505245#5_0" departPos="4.30" departSpeed="0.00" departDelay="0.00" arrival="12.00" arrivalLane="-515156296#1_0" arrivalPos="9.47" arrivalSpeed="12.99" duration="12.00" routeLength="96.48" waitingTime="0.00" waitingCount="0" stopTime="0.00" timeLoss="4.04" rerouteNo="0" devices="tripinfo_Flow353.0" vType="Car353" speedFactor="1.10" vaporized=""/>
    <tripinfo id="Flow352.2" depart="7.00" departLane="-229844763#0_0" departPos="4.78" departSpeed="0.00" departDelay="3.08" arrival="12.00" arrivalLane="229844763#0_0" arrivalPos="4.78" arrivalSpeed="4.86" duration="5.00" routeLength="9.45" waitingTime="1.00" waitingCount="1" stopTime="0.00" timeLoss="3.67" rerouteNo="0" devices="tripinfo_Flow352.2" vType="Car352" speedFactor="1.08" vaporized=""/>
    <tripinfo id="Flow231.2" depart="6.00" departLane="-25715404#0_0" departPos="5.10" departSpeed="0.00" departDelay="0.50" arrival="13.00" arrivalLane="-25715404#0_0" arrivalPos="43.91" arrivalSpeed="11.05" duration="7.00" routeLength="38.81" waitingTime="0.00" waitingCount="0" stopTime="0.00" timeLoss="3.02" rerouteNo="0" devices="tripinfo_Flow231.2" vType="Car231" speedFactor="0.98" vaporized=""/>
    <tripinfo id="Flow94.2" depart="9.00" departLane="-289004415#10_0" departPos="0.25" departSpeed="0.00" departDelay="0.55" arrival="13.00" arrivalLane="-289004415#9_0" arrivalPos="1.07" arrivalSpeed="7.90" duration="4.00" routeLength="15.47" waitingTime="0.00" waitingCount="0" stopTime="0.00" timeLoss="2.67" rerouteNo="0" devices="tripinfo_Flow94.2" vType="Car94" speedFactor="0.88" vaporized=""/>
    <tripinfo id="Flow216.1" depart="11.00" departLane="300077510#2_0" departPos="0.22" departSpeed="0.00" departDelay="1.62" arrival="13.00" arrivalLane="-300077510#2_0" arrivalPos="0.20" arrivalSpeed="3.59" duration="2.00" routeLength="4.87" waitingTime="0.00" waitingCount="0" stopTime="0.00" timeLoss="1.27" rerouteNo="0" devices="tripinfo_Flow216.1" vType="Car216" speedFactor="1.01" vaporized=""/>
    <tripinfo id="Flow142.5" depart="12.00" departLane="-269789739#5_0" departPos="3.11" departSpeed="0.00" departDelay="2.20" arrival="13.00" arrivalLane="-269789739#5_0" arrivalPos="3.11" arrivalSpeed="1.60" duration="1.00" routeLength="0.00" waitingTime="0.00" waitingCount="0" stopTime="0.00" timeLoss="0.89" rerouteNo="0" devices="tripinfo_Flow142.5" vType="Car142" speedFactor="1.12" vaporized=""/>
    <tripinfo id="Flow186.5" depart="12.00" departLane="269789739#5_0" departPos="3.11" departSpeed="0.00" departDelay="0.81" arrival="13.00" arrivalLane="269789739#5_0" arrivalPos="3.11" arrivalSpeed="1.68" duration="1.00" routeLength="0.00" waitingTime="0.00" waitingCount="0" stopTime="0.00" timeLoss="0.90" rerouteNo="0" devices="tripinfo_Flow186.5" vType="Car186" speedFactor="1.18" vaporized=""/>
    <tripinfo id="Flow127.0" depart="3.00" departLane="-25715402#4_0" departPos="5.10" departSpeed="0.00" departDelay="3.00" arrival="14.00" arrivalLane="-25715402#4_0" arrivalPos="92.40" arrivalSpeed="10.55" duration="11.00" routeLength="87.30" waitingTime="0.00" waitingCount="0" stopTime="0.00" timeLoss="3.50" rerouteNo="0" devices="tripinfo_Flow127.0" vType="Car127" speedFactor="1.01" vaporized=""/>
    <tripinfo id="Flow152.1" depart="3.00" departLane="50823701#1_0" departPos="5.10" departSpeed="0.00" departDelay="0.52" arrival="14.00" arrivalLane="50823701#2_0" arrivalPos="90.48" arrivalSpeed="12.79" duration="11.00" routeLength="96.24" waitingTime="0.00" waitingCount="0" stopTime="0.00" timeLoss="3.17" rerouteNo="0" devices="tripinfo_Flow152.1" vType="Car152" speedFactor="0.98" vaporized=""/>
    <tripinfo id="Flow331.1" depart="4.00" departLane="229844763#1_0" departPos="5.10" departSpeed="0.00" departDelay="1.12" arrival="14.00" arrivalLane="229844763#1_0" arrivalPos="96.41" arrivalSpeed="11.90" duration="10.00" routeLength="91.31" waitingTime="0.00" waitingCount="0" stopTime="0.00" timeLoss="2.62" rerouteNo="0" devices="tripinfo_Flow331.1" vType="Car331" speedFactor="1.18" vaporized=""/>
    <tripinfo id="Flow142.6" depart="13.00" departLane="-269789739#5_0" departPos="3.11" departSpeed="0.00" departDelay="1.24" arrival="14.00" arrivalLane="-269789739#5_0" arrivalPos="3.11" arrivalSpeed="2.28" duration="1.00" routeLength="0.00" waitingTime="0.00" waitingCount="0" stopTime="0.00" timeLoss="0.84" rerouteNo="0" devices="tripinfo_Flow142.6" vType="Car142" speedFactor="0.94" vaporized=""/>
    <tripinfo id="Flow312.2" depart="13.00" departLane="269789739#5_0" departPos="3.11" departSpeed="0.00" departDelay="1.24" arrival="14.00" arrivalLane="269789739#5_0" arrivalPos="3.11" arrivalSpeed="2.13" duration="1.00" routeLength="0.00" waitingTime="0.00" waitingCount="0" stopTime="0.00" timeLoss="0.86" rerouteNo="0" devices="tripinfo_Flow312.2" vType="Car312" speedFactor="1.12" vaporized=""/>
    <tripinfo id="Flow236.3" depart="13.00" departLane="405980642#5_0" departPos="5.10" departSpeed="0.00" departDelay="0.84" arrival="14.00" arrivalLane="405980642#5_0" arrivalPos="5.70" arrivalSpeed="2.51" duration="1.00" routeLength="0.60" waitingTime="0.00" waitingCount="0" stopTime="0.00" timeLoss="0.75" rerouteNo="0" devices="tripinfo_Flow236.3" vType="Car236" speedFactor="1.21" vaporized=""/>
    <tripinfo id="Flow259.4" depart="13.00" departLane="623877960#0_0" departPos="5.10" departSpeed="0.00" departDelay="0.24" arrival="14.00" arrivalLane="623877960#0_0" arrivalPos="6.54" arrivalSpeed="1.54" duration="1.00" routeLength="1.44" waitingTime="0.00" waitingCount="0" stopTime="0.00" timeLoss="0.89" rerouteNo="0" devices="tripinfo_Flow259.4" vType="Car259" speedFactor="1.00" vaporized=""/>
    <tripinfo id="Flow113.0" depart="0.00" departLane="296493635#5_0" departPos="5.10" departSpeed="0.00" departDelay="0.00" arrival="15.00" arrivalLane="296493635#5_0" arrivalPos="144.98" arrivalSpeed="12.29" duration="15.00" routeLength="139.88" waitingTime="0.00" waitingCount="0" stopTime="0.00" timeLoss="3.66" rerouteNo="0" devices="tripinfo_Flow113.0" vType="Car113" speedFactor="1.03" vaporized=""/>
    <tripinfo id="Flow171.0" depart="0.00" departLane="-300077497#0_0" departPos="5.10" departSpeed="0.00" departDelay="0.00" arrival="15.00" arrivalLane="182334379#1_0" arrivalPos="186.54" arrivalSpeed="21.95" duration="15.00" routeLength="197.67" waitingTime="0.00" waitingCount="0" stopTime="0.00" timeLoss="4.84" rerouteNo="0" devices="tripinfo_Flow171.0" vType="Car171" speedFactor="1.00" vaporized=""/>
    <tripinfo id="Flow344.0" depart="0.00" departLane="905113646#2_0" departPos="5.10" departSpeed="0.00" departDelay="0.00" arrival="15.00" arrivalLane="360851262#0_0" arrivalPos="7.32" arrivalSpeed="8.95" duration="15.00" routeLength="145.19" waitingTime="0.00" waitingCount="0" stopTime="0.00" timeLoss="6.22" rerouteNo="0" devices="tripinfo_Flow344.0" vType="Car344" speedFactor="1.07" vaporized=""/>
    <tripinfo id="Flow137.1" depart="12.00" departLane="-329022967#9_0" departPos="0.20" departSpeed="0.00" departDelay="0.46" arrival="15.00" arrivalLane="360855813#0_0" arrivalPos="0.28" arrivalSpeed="4.88" duration="3.00" routeLength="9.05" waitingTime="0.00" waitingCount="0" stopTime="0.00" timeLoss="1.52" rerouteNo="0" devices="tripinfo_Flow137.1" vType="Car137" speedFactor="0.91" vaporized=""/>
    <tripinfo id="Flow186.6" depart="14.00" departLane="269789739#5_0" departPos="3.11" departSpeed="0.00" departDelay="0.57" arrival="15.00" arrivalLane="269789739#5_0" arrivalPos="3.11" arrivalSpeed="1.94" duration="1.00" routeLength="0.00" waitingTime="0.00" waitingCount="0" stopTime="0.00" timeLoss="0.88" rerouteNo="0" devices="tripinfo_Flow186.6" vType="Car186" speedFactor="1.01" vaporized=""/>
    <tripinfo id="Flow296.0" depart="0.00" departLane="264551742#10_0" departPos="3.18" departSpeed="0.00" departDelay="0.00" arrival="16.00" arrivalLane="-905113646#2_0" arrivalPos="123.94" arrivalSpeed="11.55" duration="16.00" routeLength="146.87" waitingTime="0.00" waitingCount="0" stopTime="0.00" timeLoss="2.88" rerouteNo="0" devices="tripinfo_Flow296.0" vType="Car296" speedFactor="1.14" vaporized=""/>
    <tripinfo id="Flow74.0" depart="0.00" departLane="-905113646#1_0" departPos="4.20" departSpeed="0.00" departDelay="0.00" arrival="16.00" arrivalLane="26697218#7_0" arrivalPos="149.72" arrivalSpeed="15.67" duration="16.00" routeLength="175.20" waitingTime="0.00" waitingCount="0" stopTime="0.00" timeLoss="3.26" rerouteNo="0" devices="tripinfo_Flow74.0" vType="Car74" speedFactor="0.95" vaporized=""/>
    <tripinfo id="Flow68.1" depart="15.00" departLane="329022967#0_0" departPos="4.18" departSpeed="0.00" departDelay="12.09" arrival="16.00" arrivalLane="329022967#0_0" arrivalPos="4.18" arrivalSpeed="2.02" duration="1.00" routeLength="0.00" waitingTime="0.00" waitingCount="0" stopTime="0.00" timeLoss="0.84" rerouteNo="0" devices="tripinfo_Flow68.1" vType="Car68" speedFactor="1.13" vaporized=""/>
    <tripinfo id="Flow352.3" depart="11.00" departLane="-229844763#0_0" departPos="4.78" departSpeed="0.00" departDelay="5.12" arrival="16.00" arrivalLane="229844763#0_0" arrivalPos="4.78" arrivalSpeed="4.77" duration="5.00" routeLength="9.45" waitingTime="1.00" waitingCount="1" stopTime="0.00" timeLoss="3.44" rerouteNo="0" devices="tripinfo_Flow352.3" vType="Car352" speedFactor="0.93" vaporized=""/>
    <tripinfo id="Flow231.3" depart="9.00" departLane="-25715404#0_0" departPos="5.10" departSpeed="0.00" departDelay="0.74" arrival="16.00" arrivalLane="-25715404#0_0" arrivalPos="43.91" arrivalSpeed="11.55" duration="7.00" routeLength="38.81" waitingTime="0.00" waitingCount="0" stopTime="0.00" timeLoss="2.85" rerouteNo="0" devices="tripinfo_Flow231.3" vType="Car231" speedFactor="1.01" vaporized=""/>